Molecule generated using the PoreMS package
11205
    1OM     OM1    1   0.190   0.110   0.062
    2OM     OM1    2   0.316   0.036   0.268
    3OM     OM1    3   0.443   0.110   0.062
    4OM     OM1    4   0.316   6.029   0.062
    5OM     OM1    5   0.063   0.183   6.055
    6OM     OM1    6   6.009   0.110   0.062
    7OM     OM1    7   0.063   0.329   0.062
    8OM     OM1    8   0.316   0.183   0.475
    9OM     OM1    9   0.190   6.102   0.475
   10OM     OM1   10   0.443   6.102   0.475
   11OM     OM1   11   0.190   0.402   0.475
   12OM     OM1   12   0.443   0.402   0.475
   13OM     OM1   13   0.316   0.329   0.682
   14OM     OM1   14   0.316   0.475   0.888
   15OM     OM1   15   0.190   0.256   0.888
   16OM     OM1   16   0.443   0.256   0.888
   17OM     OM1   17   6.009   0.256   0.888
   18OM     OM1   18   0.063   0.183   1.095
   19OM     OM1   19   0.063   0.036   0.888
   20OM     OM1   20   0.190   0.110   1.302
   21OM     OM1   21   0.316   0.036   1.508
   22OM     OM1   22   0.443   0.110   1.302
   23OM     OM1   23   0.316   6.029   1.302
   24OM     OM1   24   6.009   0.110   1.302
   25OM     OM1   25   0.063   0.329   1.302
   26OM     OM1   26   0.316   0.183   1.715
   27OM     OM1   27   0.190   6.102   1.715
   28OM     OM1   28   0.443   6.102   1.715
   29OM     OM1   29   0.190   0.402   1.715
   30OM     OM1   30   0.443   0.402   1.715
   31OM     OM1   31   0.316   0.329   1.922
   32OM     OM1   32   0.316   0.475   2.128
   33OM     OM1   33   0.190   0.256   2.128
   34OM     OM1   34   0.443   0.256   2.128
   35OM     OM1   35   6.009   0.256   2.128
   36OM     OM1   36   0.063   0.036   2.128
   37OM     OM1   37   0.063   0.183   2.335
   38OM     OM1   38   0.190   0.110   2.542
   39OM     OM1   39   0.443   0.110   2.542
   40OM     OM1   40   0.316   6.029   2.542
   41OM     OM1   41   0.316   0.036   2.748
   42OM     OM1   42   6.009   0.110   2.542
   43OM     OM1   43   0.063   0.329   2.542
   44OM     OM1   44   0.316   0.183   2.955
   45OM     OM1   45   0.190   6.102   2.955
   46OM     OM1   46   0.443   6.102   2.955
   47OM     OM1   47   0.190   0.402   2.955
   48OM     OM1   48   0.443   0.402   2.955
   49OM     OM1   49   0.316   0.329   3.162
   50OM     OM1   50   0.316   0.475   3.368
   51OM     OM1   51   0.190   0.256   3.368
   52OM     OM1   52   0.443   0.256   3.368
   53OM     OM1   53   6.009   0.256   3.368
   54OM     OM1   54   0.063   0.036   3.368
   55OM     OM1   55   0.063   0.183   3.575
   56OM     OM1   56   0.190   0.110   3.782
   57OM     OM1   57   0.443   0.110   3.782
   58OM     OM1   58   0.316   6.029   3.782
   59OM     OM1   59   0.316   0.036   3.988
   60OM     OM1   60   6.009   0.110   3.782
   61OM     OM1   61   0.063   0.329   3.782
   62OM     OM1   62   0.316   0.183   4.195
   63OM     OM1   63   0.190   6.102   4.195
   64OM     OM1   64   0.443   6.102   4.195
   65OM     OM1   65   0.190   0.402   4.195
   66OM     OM1   66   0.443   0.402   4.195
   67OM     OM1   67   0.316   0.329   4.402
   68OM     OM1   68   0.316   0.475   4.608
   69OM     OM1   69   0.190   0.256   4.608
   70OM     OM1   70   0.443   0.256   4.608
   71OM     OM1   71   6.009   0.256   4.608
   72OM     OM1   72   0.063   0.036   4.608
   73OM     OM1   73   0.063   0.183   4.815
   74OM     OM1   74   0.190   0.110   5.022
   75OM     OM1   75   0.443   0.110   5.022
   76OM     OM1   76   0.316   6.029   5.022
   77OM     OM1   77   0.316   0.036   5.228
   78OM     OM1   78   6.009   0.110   5.022
   79OM     OM1   79   0.063   0.329   5.022
   80OM     OM1   80   0.316   0.183   5.435
   81OM     OM1   81   0.190   6.102   5.435
   82OM     OM1   82   0.443   6.102   5.435
   83OM     OM1   83   0.190   0.402   5.435
   84OM     OM1   84   0.443   0.402   5.435
   85OM     OM1   85   0.316   0.329   5.642
   86OM     OM1   86   0.316   0.475   5.848
   87OM     OM1   87   0.190   0.256   5.848
   88OM     OM1   88   0.443   0.256   5.848
   89OM     OM1   89   6.009   0.256   5.848
   90OM     OM1   90   0.063   0.036   5.848
   91OM     OM1   91   0.316   0.621   6.055
   92OM     OM1   92   0.190   0.548   0.062
   93OM     OM1   93   0.316   0.767   0.062
   94OM     OM1   94   0.443   0.548   0.062
   95OM     OM1   95   6.009   0.548   0.062
   96OM     OM1   96   0.063   0.475   0.268
   97OM     OM1   97   6.009   0.402   0.475
   98OM     OM1   98   0.063   0.621   0.475
   99OM     OM1   99   6.009   0.840   0.475
  100OM     OM1  100   0.190   0.840   0.475
  101OM     OM1  101   0.063   0.767   0.682
  102OM     OM1  102   0.316   0.621   1.095
  103OM     OM1  103   0.190   0.694   0.888
  104OM     OM1  104   0.443   0.694   0.888
  105OM     OM1  105   0.063   0.913   0.888
  106OM     OM1  106   6.009   0.694   0.888
  107OM     OM1  107   0.190   0.548   1.302
  108OM     OM1  108   0.316   0.767   1.302
  109OM     OM1  109   0.443   0.548   1.302
  110OM     OM1  110   6.009   0.548   1.302
  111OM     OM1  111   0.063   0.475   1.508
  112OM     OM1  112   6.009   0.402   1.715
  113OM     OM1  113   0.063   0.621   1.715
  114OM     OM1  114   6.009   0.840   1.715
  115OM     OM1  115   0.190   0.840   1.715
  116OM     OM1  116   0.063   0.767   1.922
  117OM     OM1  117   0.190   0.694   2.128
  118OM     OM1  118   0.443   0.694   2.128
  119OM     OM1  119   0.316   0.621   2.335
  120OM     OM1  120   0.063   0.913   2.128
  121OM     OM1  121   6.009   0.694   2.128
  122OM     OM1  122   0.190   0.548   2.542
  123OM     OM1  123   0.316   0.767   2.542
  124OM     OM1  124   0.443   0.548   2.542
  125OM     OM1  125   6.009   0.548   2.542
  126OM     OM1  126   0.063   0.475   2.748
  127OM     OM1  127   6.009   0.402   2.955
  128OM     OM1  128   0.063   0.621   2.955
  129OM     OM1  129   6.009   0.840   2.955
  130OM     OM1  130   0.190   0.840   2.955
  131OM     OM1  131   0.063   0.767   3.162
  132OM     OM1  132   0.190   0.694   3.368
  133OM     OM1  133   0.443   0.694   3.368
  134OM     OM1  134   0.316   0.621   3.575
  135OM     OM1  135   0.063   0.913   3.368
  136OM     OM1  136   6.009   0.694   3.368
  137OM     OM1  137   0.190   0.548   3.782
  138OM     OM1  138   0.316   0.767   3.782
  139OM     OM1  139   0.443   0.548   3.782
  140OM     OM1  140   6.009   0.548   3.782
  141OM     OM1  141   0.063   0.475   3.988
  142OM     OM1  142   6.009   0.402   4.195
  143OM     OM1  143   0.063   0.621   4.195
  144OM     OM1  144   6.009   0.840   4.195
  145OM     OM1  145   0.190   0.840   4.195
  146OM     OM1  146   0.063   0.767   4.402
  147OM     OM1  147   0.190   0.694   4.608
  148OM     OM1  148   0.443   0.694   4.608
  149OM     OM1  149   0.316   0.621   4.815
  150OM     OM1  150   0.063   0.913   4.608
  151OM     OM1  151   6.009   0.694   4.608
  152OM     OM1  152   0.190   0.548   5.022
  153OM     OM1  153   0.316   0.767   5.022
  154OM     OM1  154   0.443   0.548   5.022
  155OM     OM1  155   6.009   0.548   5.022
  156OM     OM1  156   0.063   0.475   5.228
  157OM     OM1  157   6.009   0.402   5.435
  158OM     OM1  158   0.063   0.621   5.435
  159OM     OM1  159   6.009   0.840   5.435
  160OM     OM1  160   0.190   0.840   5.435
  161OM     OM1  161   0.063   0.767   5.642
  162OM     OM1  162   0.190   0.694   5.848
  163OM     OM1  163   0.443   0.694   5.848
  164OM     OM1  164   0.063   0.913   5.848
  165OM     OM1  165   6.009   0.694   5.848
  166OM     OM1  166   0.190   0.987   0.062
  167OM     OM1  167   0.316   0.913   0.268
  168OM     OM1  168   0.443   0.987   0.062
  169OM     OM1  169   0.063   1.060   6.055
  170OM     OM1  170   0.063   1.206   0.062
  171OM     OM1  171   6.009   0.987   0.062
  172OM     OM1  172   0.316   1.060   0.475
  173OM     OM1  173   0.443   0.840   0.475
  174OM     OM1  174   6.009   1.133   0.888
  175OM     OM1  175   0.063   1.060   1.095
  176OM     OM1  176   0.190   1.133   0.888
  177OM     OM1  177   0.190   0.987   1.302
  178OM     OM1  178   0.316   0.913   1.508
  179OM     OM1  179   0.443   0.987   1.302
  180OM     OM1  180   0.063   1.206   1.302
  181OM     OM1  181   6.009   0.987   1.302
  182OM     OM1  182   0.316   1.060   1.715
  183OM     OM1  183   0.443   0.840   1.715
  184OM     OM1  184   6.009   1.133   2.128
  185OM     OM1  185   0.190   1.133   2.128
  186OM     OM1  186   0.063   1.060   2.335
  187OM     OM1  187   0.190   0.987   2.542
  188OM     OM1  188   0.443   0.987   2.542
  189OM     OM1  189   0.316   0.913   2.748
  190OM     OM1  190   0.063   1.206   2.542
  191OM     OM1  191   6.009   0.987   2.542
  192OM     OM1  192   0.316   1.060   2.955
  193OM     OM1  193   0.443   0.840   2.955
  194OM     OM1  194   6.009   1.133   3.368
  195OM     OM1  195   0.190   1.133   3.368
  196OM     OM1  196   0.063   1.060   3.575
  197OM     OM1  197   0.190   0.987   3.782
  198OM     OM1  198   0.443   0.987   3.782
  199OM     OM1  199   0.316   0.913   3.988
  200OM     OM1  200   0.063   1.206   3.782
  201OM     OM1  201   6.009   0.987   3.782
  202OM     OM1  202   0.316   1.060   4.195
  203OM     OM1  203   0.443   0.840   4.195
  204OM     OM1  204   6.009   1.133   4.608
  205OM     OM1  205   0.190   1.133   4.608
  206OM     OM1  206   0.063   1.060   4.815
  207OM     OM1  207   0.190   0.987   5.022
  208OM     OM1  208   0.443   0.987   5.022
  209OM     OM1  209   0.316   0.913   5.228
  210OM     OM1  210   0.063   1.206   5.022
  211OM     OM1  211   6.009   0.987   5.022
  212OM     OM1  212   0.316   1.060   5.435
  213OM     OM1  213   0.443   0.840   5.435
  214OM     OM1  214   6.009   1.133   5.848
  215OM     OM1  215   0.190   1.133   5.848
  216OM     OM1  216   0.316   1.498   6.055
  217OM     OM1  217   0.316   1.644   0.062
  218OM     OM1  218   0.190   1.425   0.062
  219OM     OM1  219   0.443   1.425   0.062
  220OM     OM1  220   6.009   1.425   0.062
  221OM     OM1  221   0.063   1.352   0.268
  222OM     OM1  222   0.190   1.279   0.475
  223OM     OM1  223   0.316   1.206   0.682
  224OM     OM1  224   0.443   1.279   0.475
  225OM     OM1  225   6.009   1.279   0.475
  226OM     OM1  226   0.063   1.498   0.475
  227OM     OM1  227   0.316   1.498   1.095
  228OM     OM1  228   0.316   1.352   0.888
  229OM     OM1  229   0.190   1.571   0.888
  230OM     OM1  230   0.443   1.571   0.888
  231OM     OM1  231   0.443   1.133   0.888
  232OM     OM1  232   0.316   1.644   1.302
  233OM     OM1  233   0.190   1.425   1.302
  234OM     OM1  234   0.443   1.425   1.302
  235OM     OM1  235   6.009   1.425   1.302
  236OM     OM1  236   0.063   1.352   1.508
  237OM     OM1  237   0.190   1.279   1.715
  238OM     OM1  238   0.316   1.206   1.922
  239OM     OM1  239   0.443   1.279   1.715
  240OM     OM1  240   6.009   1.279   1.715
  241OM     OM1  241   0.063   1.498   1.715
  242OM     OM1  242   0.316   1.352   2.128
  243OM     OM1  243   0.190   1.571   2.128
  244OM     OM1  244   0.443   1.571   2.128
  245OM     OM1  245   0.316   1.498   2.335
  246OM     OM1  246   0.443   1.133   2.128
  247OM     OM1  247   0.316   1.644   2.542
  248OM     OM1  248   0.190   1.425   2.542
  249OM     OM1  249   0.443   1.425   2.542
  250OM     OM1  250   6.009   1.425   2.542
  251OM     OM1  251   0.063   1.352   2.748
  252OM     OM1  252   0.190   1.279   2.955
  253OM     OM1  253   0.443   1.279   2.955
  254OM     OM1  254   0.316   1.206   3.162
  255OM     OM1  255   6.009   1.279   2.955
  256OM     OM1  256   0.063   1.498   2.955
  257OM     OM1  257   0.316   1.352   3.368
  258OM     OM1  258   0.190   1.571   3.368
  259OM     OM1  259   0.443   1.571   3.368
  260OM     OM1  260   0.316   1.498   3.575
  261OM     OM1  261   0.443   1.133   3.368
  262OM     OM1  262   0.316   1.644   3.782
  263OM     OM1  263   0.190   1.425   3.782
  264OM     OM1  264   0.443   1.425   3.782
  265OM     OM1  265   6.009   1.425   3.782
  266OM     OM1  266   0.063   1.352   3.988
  267OM     OM1  267   0.190   1.279   4.195
  268OM     OM1  268   0.443   1.279   4.195
  269OM     OM1  269   0.316   1.206   4.402
  270OM     OM1  270   6.009   1.279   4.195
  271OM     OM1  271   0.063   1.498   4.195
  272OM     OM1  272   0.316   1.352   4.608
  273OM     OM1  273   0.190   1.571   4.608
  274OM     OM1  274   0.443   1.571   4.608
  275OM     OM1  275   0.316   1.498   4.815
  276OM     OM1  276   0.443   1.133   4.608
  277OM     OM1  277   0.316   1.644   5.022
  278OM     OM1  278   0.190   1.425   5.022
  279OM     OM1  279   0.443   1.425   5.022
  280OM     OM1  280   6.009   1.425   5.022
  281OM     OM1  281   0.063   1.352   5.228
  282OM     OM1  282   0.190   1.279   5.435
  283OM     OM1  283   0.443   1.279   5.435
  284OM     OM1  284   0.316   1.206   5.642
  285OM     OM1  285   6.009   1.279   5.435
  286OM     OM1  286   0.063   1.498   5.435
  287OM     OM1  287   0.316   1.352   5.848
  288OM     OM1  288   0.190   1.571   5.848
  289OM     OM1  289   0.443   1.571   5.848
  290OM     OM1  290   0.443   1.133   5.848
  291OM     OM1  291   0.190   1.864   0.062
  292OM     OM1  292   0.316   1.791   0.268
  293OM     OM1  293   0.443   1.864   0.062
  294OM     OM1  294   0.063   1.937   6.055
  295OM     OM1  295   0.063   2.083   0.062
  296OM     OM1  296   6.009   1.864   0.062
  297OM     OM1  297   6.009   1.717   0.475
  298OM     OM1  298   0.190   1.717   0.475
  299OM     OM1  299   0.063   1.644   0.682
  300OM     OM1  300   0.316   1.937   0.475
  301OM     OM1  301   0.443   1.717   0.475
  302OM     OM1  302   0.063   1.791   0.888
  303OM     OM1  303   6.009   1.571   0.888
  304OM     OM1  304   6.009   2.010   0.888
  305OM     OM1  305   0.190   2.010   0.888
  306OM     OM1  306   0.063   1.937   1.095
  307OM     OM1  307   0.190   1.864   1.302
  308OM     OM1  308   0.316   1.791   1.508
  309OM     OM1  309   0.443   1.864   1.302
  310OM     OM1  310   0.063   2.083   1.302
  311OM     OM1  311   6.009   1.864   1.302
  312OM     OM1  312   6.009   1.717   1.715
  313OM     OM1  313   0.190   1.717   1.715
  314OM     OM1  314   0.063   1.644   1.922
  315OM     OM1  315   0.316   1.937   1.715
  316OM     OM1  316   0.443   1.717   1.715
  317OM     OM1  317   0.063   1.791   2.128
  318OM     OM1  318   6.009   1.571   2.128
  319OM     OM1  319   6.009   2.010   2.128
  320OM     OM1  320   0.190   2.010   2.128
  321OM     OM1  321   0.063   1.937   2.335
  322OM     OM1  322   0.190   1.864   2.542
  323OM     OM1  323   0.443   1.864   2.542
  324OM     OM1  324   0.316   1.791   2.748
  325OM     OM1  325   0.063   2.083   2.542
  326OM     OM1  326   6.009   1.864   2.542
  327OM     OM1  327   6.009   1.717   2.955
  328OM     OM1  328   0.190   1.717   2.955
  329OM     OM1  329   0.063   1.644   3.162
  330OM     OM1  330   0.316   1.937   2.955
  331OM     OM1  331   0.443   1.717   2.955
  332OM     OM1  332   0.063   1.791   3.368
  333OM     OM1  333   6.009   1.571   3.368
  334OM     OM1  334   6.009   2.010   3.368
  335OM     OM1  335   0.190   2.010   3.368
  336OM     OM1  336   0.063   1.937   3.575
  337OM     OM1  337   0.190   1.864   3.782
  338OM     OM1  338   0.443   1.864   3.782
  339OM     OM1  339   0.316   1.791   3.988
  340OM     OM1  340   0.063   2.083   3.782
  341OM     OM1  341   6.009   1.864   3.782
  342OM     OM1  342   6.009   1.717   4.195
  343OM     OM1  343   0.190   1.717   4.195
  344OM     OM1  344   0.063   1.644   4.402
  345OM     OM1  345   0.316   1.937   4.195
  346OM     OM1  346   0.443   1.717   4.195
  347OM     OM1  347   0.063   1.791   4.608
  348OM     OM1  348   6.009   1.571   4.608
  349OM     OM1  349   6.009   2.010   4.608
  350OM     OM1  350   0.190   2.010   4.608
  351OM     OM1  351   0.063   1.937   4.815
  352OM     OM1  352   0.190   1.864   5.022
  353OM     OM1  353   0.443   1.864   5.022
  354OM     OM1  354   0.316   1.791   5.228
  355OM     OM1  355   0.063   2.083   5.022
  356OM     OM1  356   6.009   1.864   5.022
  357OM     OM1  357   6.009   1.717   5.435
  358OM     OM1  358   0.190   1.717   5.435
  359OM     OM1  359   0.063   1.644   5.642
  360OM     OM1  360   0.316   1.937   5.435
  361OM     OM1  361   0.443   1.717   5.435
  362OM     OM1  362   0.063   1.791   5.848
  363OM     OM1  363   6.009   1.571   5.848
  364OM     OM1  364   6.009   2.010   5.848
  365OM     OM1  365   0.190   2.010   5.848
  366OM     OM1  366   0.316   2.375   6.055
  367OM     OM1  367   0.316   2.521   0.062
  368OM     OM1  368   0.190   2.302   0.062
  369OM     OM1  369   0.443   2.302   0.062
  370OM     OM1  370   6.009   2.302   0.062
  371OM     OM1  371   0.063   2.229   0.268
  372OM     OM1  372   0.190   2.156   0.475
  373OM     OM1  373   0.316   2.083   0.682
  374OM     OM1  374   0.443   2.156   0.475
  375OM     OM1  375   6.009   2.156   0.475
  376OM     OM1  376   0.063   2.375   0.475
  377OM     OM1  377   0.190   2.448   0.888
  378OM     OM1  378   0.443   2.448   0.888
  379OM     OM1  379   0.316   2.375   1.095
  380OM     OM1  380   0.316   2.229   0.888
  381OM     OM1  381   0.443   2.010   0.888
  382OM     OM1  382   0.316   2.521   1.302
  383OM     OM1  383   0.190   2.302   1.302
  384OM     OM1  384   0.443   2.302   1.302
  385OM     OM1  385   6.009   2.302   1.302
  386OM     OM1  386   0.063   2.229   1.508
  387OM     OM1  387   0.190   2.156   1.715
  388OM     OM1  388   0.316   2.083   1.922
  389OM     OM1  389   0.443   2.156   1.715
  390OM     OM1  390   6.009   2.156   1.715
  391OM     OM1  391   0.063   2.375   1.715
  392OM     OM1  392   0.190   2.448   2.128
  393OM     OM1  393   0.443   2.448   2.128
  394OM     OM1  394   0.316   2.229   2.128
  395OM     OM1  395   0.316   2.375   2.335
  396OM     OM1  396   0.443   2.010   2.128
  397OM     OM1  397   0.316   2.521   2.542
  398OM     OM1  398   0.190   2.302   2.542
  399OM     OM1  399   0.443   2.302   2.542
  400OM     OM1  400   6.009   2.302   2.542
  401OM     OM1  401   0.063   2.229   2.748
  402OM     OM1  402   0.190   2.156   2.955
  403OM     OM1  403   0.443   2.156   2.955
  404OM     OM1  404   0.316   2.083   3.162
  405OM     OM1  405   6.009   2.156   2.955
  406OM     OM1  406   0.063   2.375   2.955
  407OM     OM1  407   0.190   2.448   3.368
  408OM     OM1  408   0.443   2.448   3.368
  409OM     OM1  409   0.316   2.229   3.368
  410OM     OM1  410   0.316   2.375   3.575
  411OM     OM1  411   0.443   2.010   3.368
  412OM     OM1  412   0.316   2.521   3.782
  413OM     OM1  413   0.190   2.302   3.782
  414OM     OM1  414   0.443   2.302   3.782
  415OM     OM1  415   6.009   2.302   3.782
  416OM     OM1  416   0.063   2.229   3.988
  417OM     OM1  417   0.190   2.156   4.195
  418OM     OM1  418   0.443   2.156   4.195
  419OM     OM1  419   0.316   2.083   4.402
  420OM     OM1  420   6.009   2.156   4.195
  421OM     OM1  421   0.063   2.375   4.195
  422OM     OM1  422   0.190   2.448   4.608
  423OM     OM1  423   0.443   2.448   4.608
  424OM     OM1  424   0.316   2.229   4.608
  425OM     OM1  425   0.316   2.375   4.815
  426OM     OM1  426   0.443   2.010   4.608
  427OM     OM1  427   0.316   2.521   5.022
  428OM     OM1  428   0.190   2.302   5.022
  429OM     OM1  429   0.443   2.302   5.022
  430OM     OM1  430   6.009   2.302   5.022
  431OM     OM1  431   0.063   2.229   5.228
  432OM     OM1  432   0.190   2.156   5.435
  433OM     OM1  433   0.443   2.156   5.435
  434OM     OM1  434   0.316   2.083   5.642
  435OM     OM1  435   6.009   2.156   5.435
  436OM     OM1  436   0.063   2.375   5.435
  437OM     OM1  437   0.190   2.448   5.848
  438OM     OM1  438   0.443   2.448   5.848
  439OM     OM1  439   0.316   2.229   5.848
  440OM     OM1  440   0.443   2.010   5.848
  441OM     OM1  441   0.190   2.741   0.062
  442OM     OM1  442   0.316   2.668   0.268
  443OM     OM1  443   0.443   2.741   0.062
  444OM     OM1  444   6.009   2.594   0.475
  445OM     OM1  445   0.190   2.594   0.475
  446OM     OM1  446   0.063   2.521   0.682
  447OM     OM1  447   0.316   2.814   0.475
  448OM     OM1  448   0.443   2.594   0.475
  449OM     OM1  449   6.009   2.448   0.888
  450OM     OM1  450   0.063   2.668   0.888
  451OM     OM1  451   0.190   2.741   1.302
  452OM     OM1  452   0.316   2.668   1.508
  453OM     OM1  453   0.443   2.741   1.302
  454OM     OM1  454   6.009   2.594   1.715
  455OM     OM1  455   0.190   2.594   1.715
  456OM     OM1  456   0.063   2.521   1.922
  457OM     OM1  457   0.316   2.814   1.715
  458OM     OM1  458   0.443   2.594   1.715
  459OM     OM1  459   6.009   2.448   2.128
  460OM     OM1  460   0.063   2.668   2.128
  461OM     OM1  461   0.190   2.741   2.542
  462OM     OM1  462   0.443   2.741   2.542
  463OM     OM1  463   0.316   2.668   2.748
  464OM     OM1  464   6.009   2.594   2.955
  465OM     OM1  465   0.190   2.594   2.955
  466OM     OM1  466   0.063   2.521   3.162
  467OM     OM1  467   0.316   2.814   2.955
  468OM     OM1  468   0.443   2.594   2.955
  469OM     OM1  469   6.009   2.448   3.368
  470OM     OM1  470   0.063   2.668   3.368
  471OM     OM1  471   0.190   2.741   3.782
  472OM     OM1  472   0.443   2.741   3.782
  473OM     OM1  473   0.316   2.668   3.988
  474OM     OM1  474   6.009   2.594   4.195
  475OM     OM1  475   0.190   2.594   4.195
  476OM     OM1  476   0.063   2.521   4.402
  477OM     OM1  477   0.316   2.814   4.195
  478OM     OM1  478   0.443   2.594   4.195
  479OM     OM1  479   6.009   2.448   4.608
  480OM     OM1  480   0.063   2.668   4.608
  481OM     OM1  481   0.190   2.741   5.022
  482OM     OM1  482   0.443   2.741   5.022
  483OM     OM1  483   0.316   2.668   5.228
  484OM     OM1  484   6.009   2.594   5.435
  485OM     OM1  485   0.190   2.594   5.435
  486OM     OM1  486   0.063   2.521   5.642
  487OM     OM1  487   0.316   2.814   5.435
  488OM     OM1  488   0.443   2.594   5.435
  489OM     OM1  489   6.009   2.448   5.848
  490OM     OM1  490   0.063   2.668   5.848
  491OM     OM1  491   0.063   2.814   6.055
  492OM     OM1  492   0.063   2.960   0.062
  493OM     OM1  493   6.009   2.741   0.062
  494OM     OM1  494   6.009   3.179   0.062
  495OM     OM1  495   0.190   3.179   0.062
  496OM     OM1  496   0.063   3.106   0.268
  497OM     OM1  497   0.190   3.033   0.475
  498OM     OM1  498   0.316   2.960   0.682
  499OM     OM1  499   0.443   3.033   0.475
  500OM     OM1  500   0.063   3.252   0.475
  501OM     OM1  501   6.009   3.033   0.475
  502OM     OM1  502   0.316   3.106   0.888
  503OM     OM1  503   0.190   2.887   0.888
  504OM     OM1  504   0.443   2.887   0.888
  505OM     OM1  505   6.009   2.887   0.888
  506OM     OM1  506   0.063   2.814   1.095
  507OM     OM1  507   0.063   2.960   1.302
  508OM     OM1  508   6.009   2.741   1.302
  509OM     OM1  509   6.009   3.179   1.302
  510OM     OM1  510   0.190   3.179   1.302
  511OM     OM1  511   0.063   3.106   1.508
  512OM     OM1  512   0.190   3.033   1.715
  513OM     OM1  513   0.316   2.960   1.922
  514OM     OM1  514   0.443   3.033   1.715
  515OM     OM1  515   0.063   3.252   1.715
  516OM     OM1  516   6.009   3.033   1.715
  517OM     OM1  517   0.316   3.106   2.128
  518OM     OM1  518   0.190   2.887   2.128
  519OM     OM1  519   0.443   2.887   2.128
  520OM     OM1  520   6.009   2.887   2.128
  521OM     OM1  521   0.063   2.814   2.335
  522OM     OM1  522   0.063   2.960   2.542
  523OM     OM1  523   6.009   2.741   2.542
  524OM     OM1  524   6.009   3.179   2.542
  525OM     OM1  525   0.190   3.179   2.542
  526OM     OM1  526   0.063   3.106   2.748
  527OM     OM1  527   0.190   3.033   2.955
  528OM     OM1  528   0.443   3.033   2.955
  529OM     OM1  529   0.316   2.960   3.162
  530OM     OM1  530   0.063   3.252   2.955
  531OM     OM1  531   6.009   3.033   2.955
  532OM     OM1  532   0.316   3.106   3.368
  533OM     OM1  533   0.190   2.887   3.368
  534OM     OM1  534   0.443   2.887   3.368
  535OM     OM1  535   6.009   2.887   3.368
  536OM     OM1  536   0.063   2.814   3.575
  537OM     OM1  537   0.063   2.960   3.782
  538OM     OM1  538   6.009   2.741   3.782
  539OM     OM1  539   6.009   3.179   3.782
  540OM     OM1  540   0.190   3.179   3.782
  541OM     OM1  541   0.063   3.106   3.988
  542OM     OM1  542   0.190   3.033   4.195
  543OM     OM1  543   0.443   3.033   4.195
  544OM     OM1  544   0.316   2.960   4.402
  545OM     OM1  545   0.063   3.252   4.195
  546OM     OM1  546   6.009   3.033   4.195
  547OM     OM1  547   0.316   3.106   4.608
  548OM     OM1  548   0.190   2.887   4.608
  549OM     OM1  549   0.443   2.887   4.608
  550OM     OM1  550   6.009   2.887   4.608
  551OM     OM1  551   0.063   2.814   4.815
  552OM     OM1  552   0.063   2.960   5.022
  553OM     OM1  553   6.009   2.741   5.022
  554OM     OM1  554   6.009   3.179   5.022
  555OM     OM1  555   0.190   3.179   5.022
  556OM     OM1  556   0.063   3.106   5.228
  557OM     OM1  557   0.190   3.033   5.435
  558OM     OM1  558   0.443   3.033   5.435
  559OM     OM1  559   0.316   2.960   5.642
  560OM     OM1  560   0.063   3.252   5.435
  561OM     OM1  561   6.009   3.033   5.435
  562OM     OM1  562   0.316   3.106   5.848
  563OM     OM1  563   0.190   2.887   5.848
  564OM     OM1  564   0.443   2.887   5.848
  565OM     OM1  565   6.009   2.887   5.848
  566OM     OM1  566   0.316   3.252   6.055
  567OM     OM1  567   0.316   3.398   0.062
  568OM     OM1  568   0.443   3.179   0.062
  569OM     OM1  569   0.190   3.618   0.062
  570OM     OM1  570   0.443   3.618   0.062
  571OM     OM1  571   0.316   3.545   0.268
  572OM     OM1  572   6.009   3.471   0.475
  573OM     OM1  573   0.190   3.471   0.475
  574OM     OM1  574   0.063   3.398   0.682
  575OM     OM1  575   0.316   3.691   0.475
  576OM     OM1  576   0.443   3.471   0.475
  577OM     OM1  577   0.316   3.252   1.095
  578OM     OM1  578   0.190   3.325   0.888
  579OM     OM1  579   0.443   3.325   0.888
  580OM     OM1  580   6.009   3.325   0.888
  581OM     OM1  581   0.063   3.545   0.888
  582OM     OM1  582   0.316   3.398   1.302
  583OM     OM1  583   0.443   3.179   1.302
  584OM     OM1  584   0.190   3.618   1.302
  585OM     OM1  585   0.443   3.618   1.302
  586OM     OM1  586   0.316   3.545   1.508
  587OM     OM1  587   6.009   3.471   1.715
  588OM     OM1  588   0.190   3.471   1.715
  589OM     OM1  589   0.063   3.398   1.922
  590OM     OM1  590   0.316   3.691   1.715
  591OM     OM1  591   0.443   3.471   1.715
  592OM     OM1  592   0.190   3.325   2.128
  593OM     OM1  593   0.443   3.325   2.128
  594OM     OM1  594   0.316   3.252   2.335
  595OM     OM1  595   6.009   3.325   2.128
  596OM     OM1  596   0.063   3.545   2.128
  597OM     OM1  597   0.316   3.398   2.542
  598OM     OM1  598   0.443   3.179   2.542
  599OM     OM1  599   0.190   3.618   2.542
  600OM     OM1  600   0.443   3.618   2.542
  601OM     OM1  601   0.316   3.545   2.748
  602OM     OM1  602   6.009   3.471   2.955
  603OM     OM1  603   0.190   3.471   2.955
  604OM     OM1  604   0.063   3.398   3.162
  605OM     OM1  605   0.316   3.691   2.955
  606OM     OM1  606   0.443   3.471   2.955
  607OM     OM1  607   0.190   3.325   3.368
  608OM     OM1  608   0.443   3.325   3.368
  609OM     OM1  609   0.316   3.252   3.575
  610OM     OM1  610   6.009   3.325   3.368
  611OM     OM1  611   0.063   3.545   3.368
  612OM     OM1  612   0.316   3.398   3.782
  613OM     OM1  613   0.443   3.179   3.782
  614OM     OM1  614   0.190   3.618   3.782
  615OM     OM1  615   0.443   3.618   3.782
  616OM     OM1  616   0.316   3.545   3.988
  617OM     OM1  617   6.009   3.471   4.195
  618OM     OM1  618   0.190   3.471   4.195
  619OM     OM1  619   0.063   3.398   4.402
  620OM     OM1  620   0.316   3.691   4.195
  621OM     OM1  621   0.443   3.471   4.195
  622OM     OM1  622   0.190   3.325   4.608
  623OM     OM1  623   0.443   3.325   4.608
  624OM     OM1  624   0.316   3.252   4.815
  625OM     OM1  625   6.009   3.325   4.608
  626OM     OM1  626   0.063   3.545   4.608
  627OM     OM1  627   0.316   3.398   5.022
  628OM     OM1  628   0.443   3.179   5.022
  629OM     OM1  629   0.190   3.618   5.022
  630OM     OM1  630   0.443   3.618   5.022
  631OM     OM1  631   0.316   3.545   5.228
  632OM     OM1  632   6.009   3.471   5.435
  633OM     OM1  633   0.190   3.471   5.435
  634OM     OM1  634   0.063   3.398   5.642
  635OM     OM1  635   0.316   3.691   5.435
  636OM     OM1  636   0.443   3.471   5.435
  637OM     OM1  637   0.190   3.325   5.848
  638OM     OM1  638   0.443   3.325   5.848
  639OM     OM1  639   6.009   3.325   5.848
  640OM     OM1  640   0.063   3.545   5.848
  641OM     OM1  641   0.063   3.691   6.055
  642OM     OM1  642   6.009   3.618   0.062
  643OM     OM1  643   0.063   3.837   0.062
  644OM     OM1  644   6.009   4.056   0.062
  645OM     OM1  645   0.190   4.056   0.062
  646OM     OM1  646   0.063   3.983   0.268
  647OM     OM1  647   0.190   3.910   0.475
  648OM     OM1  648   0.316   3.837   0.682
  649OM     OM1  649   0.443   3.910   0.475
  650OM     OM1  650   0.063   4.129   0.475
  651OM     OM1  651   6.009   3.910   0.475
  652OM     OM1  652   0.316   3.983   0.888
  653OM     OM1  653   0.190   3.764   0.888
  654OM     OM1  654   0.443   3.764   0.888
  655OM     OM1  655   6.009   3.764   0.888
  656OM     OM1  656   0.063   3.691   1.095
  657OM     OM1  657   6.009   3.618   1.302
  658OM     OM1  658   0.063   3.837   1.302
  659OM     OM1  659   6.009   4.056   1.302
  660OM     OM1  660   0.190   4.056   1.302
  661OM     OM1  661   0.063   3.983   1.508
  662OM     OM1  662   0.190   3.910   1.715
  663OM     OM1  663   0.316   3.837   1.922
  664OM     OM1  664   0.443   3.910   1.715
  665OM     OM1  665   0.063   4.129   1.715
  666OM     OM1  666   6.009   3.910   1.715
  667OM     OM1  667   0.316   3.983   2.128
  668OM     OM1  668   0.190   3.764   2.128
  669OM     OM1  669   0.443   3.764   2.128
  670OM     OM1  670   6.009   3.764   2.128
  671OM     OM1  671   0.063   3.691   2.335
  672OM     OM1  672   6.009   3.618   2.542
  673OM     OM1  673   0.063   3.837   2.542
  674OM     OM1  674   6.009   4.056   2.542
  675OM     OM1  675   0.190   4.056   2.542
  676OM     OM1  676   0.063   3.983   2.748
  677OM     OM1  677   0.190   3.910   2.955
  678OM     OM1  678   0.443   3.910   2.955
  679OM     OM1  679   0.316   3.837   3.162
  680OM     OM1  680   0.063   4.129   2.955
  681OM     OM1  681   6.009   3.910   2.955
  682OM     OM1  682   0.316   3.983   3.368
  683OM     OM1  683   0.190   3.764   3.368
  684OM     OM1  684   0.443   3.764   3.368
  685OM     OM1  685   6.009   3.764   3.368
  686OM     OM1  686   0.063   3.691   3.575
  687OM     OM1  687   6.009   3.618   3.782
  688OM     OM1  688   0.063   3.837   3.782
  689OM     OM1  689   6.009   4.056   3.782
  690OM     OM1  690   0.190   4.056   3.782
  691OM     OM1  691   0.063   3.983   3.988
  692OM     OM1  692   0.190   3.910   4.195
  693OM     OM1  693   0.443   3.910   4.195
  694OM     OM1  694   0.316   3.837   4.402
  695OM     OM1  695   0.063   4.129   4.195
  696OM     OM1  696   6.009   3.910   4.195
  697OM     OM1  697   0.316   3.983   4.608
  698OM     OM1  698   0.190   3.764   4.608
  699OM     OM1  699   0.443   3.764   4.608
  700OM     OM1  700   6.009   3.764   4.608
  701OM     OM1  701   0.063   3.691   4.815
  702OM     OM1  702   6.009   3.618   5.022
  703OM     OM1  703   0.063   3.837   5.022
  704OM     OM1  704   6.009   4.056   5.022
  705OM     OM1  705   0.190   4.056   5.022
  706OM     OM1  706   0.063   3.983   5.228
  707OM     OM1  707   0.190   3.910   5.435
  708OM     OM1  708   0.443   3.910   5.435
  709OM     OM1  709   0.316   3.837   5.642
  710OM     OM1  710   0.063   4.129   5.435
  711OM     OM1  711   6.009   3.910   5.435
  712OM     OM1  712   0.316   3.983   5.848
  713OM     OM1  713   0.190   3.764   5.848
  714OM     OM1  714   0.443   3.764   5.848
  715OM     OM1  715   6.009   3.764   5.848
  716OM     OM1  716   0.316   4.129   6.055
  717OM     OM1  717   0.316   4.275   0.062
  718OM     OM1  718   0.443   4.056   0.062
  719OM     OM1  719   6.009   4.348   0.475
  720OM     OM1  720   0.190   4.348   0.475
  721OM     OM1  721   0.063   4.275   0.682
  722OM     OM1  722   0.316   4.129   1.095
  723OM     OM1  723   0.190   4.202   0.888
  724OM     OM1  724   0.443   4.202   0.888
  725OM     OM1  725   0.063   4.422   0.888
  726OM     OM1  726   6.009   4.202   0.888
  727OM     OM1  727   0.316   4.275   1.302
  728OM     OM1  728   0.443   4.056   1.302
  729OM     OM1  729   6.009   4.348   1.715
  730OM     OM1  730   0.190   4.348   1.715
  731OM     OM1  731   0.063   4.275   1.922
  732OM     OM1  732   0.190   4.202   2.128
  733OM     OM1  733   0.443   4.202   2.128
  734OM     OM1  734   0.316   4.129   2.335
  735OM     OM1  735   0.063   4.422   2.128
  736OM     OM1  736   6.009   4.202   2.128
  737OM     OM1  737   0.316   4.275   2.542
  738OM     OM1  738   0.443   4.056   2.542
  739OM     OM1  739   6.009   4.348   2.955
  740OM     OM1  740   0.190   4.348   2.955
  741OM     OM1  741   0.063   4.275   3.162
  742OM     OM1  742   0.190   4.202   3.368
  743OM     OM1  743   0.443   4.202   3.368
  744OM     OM1  744   0.316   4.129   3.575
  745OM     OM1  745   0.063   4.422   3.368
  746OM     OM1  746   6.009   4.202   3.368
  747OM     OM1  747   0.316   4.275   3.782
  748OM     OM1  748   0.443   4.056   3.782
  749OM     OM1  749   6.009   4.348   4.195
  750OM     OM1  750   0.190   4.348   4.195
  751OM     OM1  751   0.063   4.275   4.402
  752OM     OM1  752   0.190   4.202   4.608
  753OM     OM1  753   0.443   4.202   4.608
  754OM     OM1  754   0.316   4.129   4.815
  755OM     OM1  755   0.063   4.422   4.608
  756OM     OM1  756   6.009   4.202   4.608
  757OM     OM1  757   0.316   4.275   5.022
  758OM     OM1  758   0.443   4.056   5.022
  759OM     OM1  759   6.009   4.348   5.435
  760OM     OM1  760   0.190   4.348   5.435
  761OM     OM1  761   0.063   4.275   5.642
  762OM     OM1  762   0.190   4.202   5.848
  763OM     OM1  763   0.443   4.202   5.848
  764OM     OM1  764   0.063   4.422   5.848
  765OM     OM1  765   6.009   4.202   5.848
  766OM     OM1  766   0.190   4.495   0.062
  767OM     OM1  767   0.316   4.422   0.268
  768OM     OM1  768   0.443   4.495   0.062
  769OM     OM1  769   0.063   4.568   6.055
  770OM     OM1  770   6.009   4.495   0.062
  771OM     OM1  771   0.063   4.714   0.062
  772OM     OM1  772   0.316   4.568   0.475
  773OM     OM1  773   0.443   4.348   0.475
  774OM     OM1  774   0.190   4.787   0.475
  775OM     OM1  775   0.316   4.714   0.682
  776OM     OM1  776   0.443   4.787   0.475
  777OM     OM1  777   0.316   4.860   0.888
  778OM     OM1  778   0.190   4.641   0.888
  779OM     OM1  779   0.443   4.641   0.888
  780OM     OM1  780   6.009   4.641   0.888
  781OM     OM1  781   0.063   4.568   1.095
  782OM     OM1  782   0.190   4.495   1.302
  783OM     OM1  783   0.316   4.422   1.508
  784OM     OM1  784   0.443   4.495   1.302
  785OM     OM1  785   6.009   4.495   1.302
  786OM     OM1  786   0.063   4.714   1.302
  787OM     OM1  787   0.316   4.568   1.715
  788OM     OM1  788   0.443   4.348   1.715
  789OM     OM1  789   0.190   4.787   1.715
  790OM     OM1  790   0.316   4.714   1.922
  791OM     OM1  791   0.443   4.787   1.715
  792OM     OM1  792   0.316   4.860   2.128
  793OM     OM1  793   0.190   4.641   2.128
  794OM     OM1  794   0.443   4.641   2.128
  795OM     OM1  795   6.009   4.641   2.128
  796OM     OM1  796   0.063   4.568   2.335
  797OM     OM1  797   0.190   4.495   2.542
  798OM     OM1  798   0.443   4.495   2.542
  799OM     OM1  799   0.316   4.422   2.748
  800OM     OM1  800   6.009   4.495   2.542
  801OM     OM1  801   0.063   4.714   2.542
  802OM     OM1  802   0.316   4.568   2.955
  803OM     OM1  803   0.443   4.348   2.955
  804OM     OM1  804   0.190   4.787   2.955
  805OM     OM1  805   0.443   4.787   2.955
  806OM     OM1  806   0.316   4.714   3.162
  807OM     OM1  807   0.316   4.860   3.368
  808OM     OM1  808   0.190   4.641   3.368
  809OM     OM1  809   0.443   4.641   3.368
  810OM     OM1  810   6.009   4.641   3.368
  811OM     OM1  811   0.063   4.568   3.575
  812OM     OM1  812   0.190   4.495   3.782
  813OM     OM1  813   0.443   4.495   3.782
  814OM     OM1  814   0.316   4.422   3.988
  815OM     OM1  815   6.009   4.495   3.782
  816OM     OM1  816   0.063   4.714   3.782
  817OM     OM1  817   0.316   4.568   4.195
  818OM     OM1  818   0.443   4.348   4.195
  819OM     OM1  819   0.190   4.787   4.195
  820OM     OM1  820   0.443   4.787   4.195
  821OM     OM1  821   0.316   4.714   4.402
  822OM     OM1  822   0.316   4.860   4.608
  823OM     OM1  823   0.190   4.641   4.608
  824OM     OM1  824   0.443   4.641   4.608
  825OM     OM1  825   6.009   4.641   4.608
  826OM     OM1  826   0.063   4.568   4.815
  827OM     OM1  827   0.190   4.495   5.022
  828OM     OM1  828   0.443   4.495   5.022
  829OM     OM1  829   0.316   4.422   5.228
  830OM     OM1  830   6.009   4.495   5.022
  831OM     OM1  831   0.063   4.714   5.022
  832OM     OM1  832   0.316   4.568   5.435
  833OM     OM1  833   0.443   4.348   5.435
  834OM     OM1  834   0.190   4.787   5.435
  835OM     OM1  835   0.443   4.787   5.435
  836OM     OM1  836   0.316   4.714   5.642
  837OM     OM1  837   0.316   4.860   5.848
  838OM     OM1  838   0.190   4.641   5.848
  839OM     OM1  839   0.443   4.641   5.848
  840OM     OM1  840   6.009   4.641   5.848
  841OM     OM1  841   0.316   5.006   6.055
  842OM     OM1  842   0.190   4.933   0.062
  843OM     OM1  843   0.316   5.152   0.062
  844OM     OM1  844   0.443   4.933   0.062
  845OM     OM1  845   6.009   4.933   0.062
  846OM     OM1  846   0.063   4.860   0.268
  847OM     OM1  847   0.063   5.006   0.475
  848OM     OM1  848   6.009   4.787   0.475
  849OM     OM1  849   6.009   5.225   0.475
  850OM     OM1  850   0.190   5.225   0.475
  851OM     OM1  851   0.063   5.152   0.682
  852OM     OM1  852   0.316   5.006   1.095
  853OM     OM1  853   0.190   5.079   0.888
  854OM     OM1  854   0.443   5.079   0.888
  855OM     OM1  855   0.063   5.299   0.888
  856OM     OM1  856   6.009   5.079   0.888
  857OM     OM1  857   0.190   4.933   1.302
  858OM     OM1  858   0.316   5.152   1.302
  859OM     OM1  859   0.443   4.933   1.302
  860OM     OM1  860   6.009   4.933   1.302
  861OM     OM1  861   0.063   4.860   1.508
  862OM     OM1  862   0.063   5.006   1.715
  863OM     OM1  863   6.009   4.787   1.715
  864OM     OM1  864   6.009   5.225   1.715
  865OM     OM1  865   0.190   5.225   1.715
  866OM     OM1  866   0.063   5.152   1.922
  867OM     OM1  867   0.190   5.079   2.128
  868OM     OM1  868   0.443   5.079   2.128
  869OM     OM1  869   0.316   5.006   2.335
  870OM     OM1  870   0.063   5.299   2.128
  871OM     OM1  871   6.009   5.079   2.128
  872OM     OM1  872   0.190   4.933   2.542
  873OM     OM1  873   0.316   5.152   2.542
  874OM     OM1  874   0.443   4.933   2.542
  875OM     OM1  875   6.009   4.933   2.542
  876OM     OM1  876   0.063   4.860   2.748
  877OM     OM1  877   0.063   5.006   2.955
  878OM     OM1  878   6.009   4.787   2.955
  879OM     OM1  879   6.009   5.225   2.955
  880OM     OM1  880   0.190   5.225   2.955
  881OM     OM1  881   0.063   5.152   3.162
  882OM     OM1  882   0.190   5.079   3.368
  883OM     OM1  883   0.443   5.079   3.368
  884OM     OM1  884   0.316   5.006   3.575
  885OM     OM1  885   0.063   5.299   3.368
  886OM     OM1  886   6.009   5.079   3.368
  887OM     OM1  887   0.190   4.933   3.782
  888OM     OM1  888   0.316   5.152   3.782
  889OM     OM1  889   0.443   4.933   3.782
  890OM     OM1  890   6.009   4.933   3.782
  891OM     OM1  891   0.063   4.860   3.988
  892OM     OM1  892   0.063   5.006   4.195
  893OM     OM1  893   6.009   4.787   4.195
  894OM     OM1  894   6.009   5.225   4.195
  895OM     OM1  895   0.190   5.225   4.195
  896OM     OM1  896   0.063   5.152   4.402
  897OM     OM1  897   0.190   5.079   4.608
  898OM     OM1  898   0.443   5.079   4.608
  899OM     OM1  899   0.316   5.006   4.815
  900OM     OM1  900   0.063   5.299   4.608
  901OM     OM1  901   6.009   5.079   4.608
  902OM     OM1  902   0.190   4.933   5.022
  903OM     OM1  903   0.316   5.152   5.022
  904OM     OM1  904   0.443   4.933   5.022
  905OM     OM1  905   6.009   4.933   5.022
  906OM     OM1  906   0.063   4.860   5.228
  907OM     OM1  907   0.063   5.006   5.435
  908OM     OM1  908   6.009   4.787   5.435
  909OM     OM1  909   6.009   5.225   5.435
  910OM     OM1  910   0.190   5.225   5.435
  911OM     OM1  911   0.063   5.152   5.642
  912OM     OM1  912   0.190   5.079   5.848
  913OM     OM1  913   0.443   5.079   5.848
  914OM     OM1  914   0.063   5.299   5.848
  915OM     OM1  915   6.009   5.079   5.848
  916OM     OM1  916   0.190   5.372   0.062
  917OM     OM1  917   0.316   5.299   0.268
  918OM     OM1  918   0.443   5.372   0.062
  919OM     OM1  919   0.063   5.445   6.055
  920OM     OM1  920   6.009   5.372   0.062
  921OM     OM1  921   0.063   5.591   0.062
  922OM     OM1  922   0.316   5.445   0.475
  923OM     OM1  923   0.443   5.225   0.475
  924OM     OM1  924   0.190   5.664   0.475
  925OM     OM1  925   0.443   5.664   0.475
  926OM     OM1  926   0.316   5.591   0.682
  927OM     OM1  927   0.316   5.737   0.888
  928OM     OM1  928   0.190   5.518   0.888
  929OM     OM1  929   0.443   5.518   0.888
  930OM     OM1  930   6.009   5.518   0.888
  931OM     OM1  931   0.063   5.445   1.095
  932OM     OM1  932   0.190   5.372   1.302
  933OM     OM1  933   0.316   5.299   1.508
  934OM     OM1  934   0.443   5.372   1.302
  935OM     OM1  935   6.009   5.372   1.302
  936OM     OM1  936   0.063   5.591   1.302
  937OM     OM1  937   0.316   5.445   1.715
  938OM     OM1  938   0.443   5.225   1.715
  939OM     OM1  939   0.190   5.664   1.715
  940OM     OM1  940   0.443   5.664   1.715
  941OM     OM1  941   0.316   5.591   1.922
  942OM     OM1  942   0.316   5.737   2.128
  943OM     OM1  943   0.190   5.518   2.128
  944OM     OM1  944   0.443   5.518   2.128
  945OM     OM1  945   6.009   5.518   2.128
  946OM     OM1  946   0.063   5.445   2.335
  947OM     OM1  947   0.190   5.372   2.542
  948OM     OM1  948   0.443   5.372   2.542
  949OM     OM1  949   0.316   5.299   2.748
  950OM     OM1  950   6.009   5.372   2.542
  951OM     OM1  951   0.063   5.591   2.542
  952OM     OM1  952   0.316   5.445   2.955
  953OM     OM1  953   0.443   5.225   2.955
  954OM     OM1  954   0.190   5.664   2.955
  955OM     OM1  955   0.443   5.664   2.955
  956OM     OM1  956   0.316   5.591   3.162
  957OM     OM1  957   0.316   5.737   3.368
  958OM     OM1  958   0.190   5.518   3.368
  959OM     OM1  959   0.443   5.518   3.368
  960OM     OM1  960   6.009   5.518   3.368
  961OM     OM1  961   0.063   5.445   3.575
  962OM     OM1  962   0.190   5.372   3.782
  963OM     OM1  963   0.443   5.372   3.782
  964OM     OM1  964   0.316   5.299   3.988
  965OM     OM1  965   6.009   5.372   3.782
  966OM     OM1  966   0.063   5.591   3.782
  967OM     OM1  967   0.316   5.445   4.195
  968OM     OM1  968   0.443   5.225   4.195
  969OM     OM1  969   0.190   5.664   4.195
  970OM     OM1  970   0.443   5.664   4.195
  971OM     OM1  971   0.316   5.591   4.402
  972OM     OM1  972   0.316   5.737   4.608
  973OM     OM1  973   0.190   5.518   4.608
  974OM     OM1  974   0.443   5.518   4.608
  975OM     OM1  975   6.009   5.518   4.608
  976OM     OM1  976   0.063   5.445   4.815
  977OM     OM1  977   0.190   5.372   5.022
  978OM     OM1  978   0.443   5.372   5.022
  979OM     OM1  979   0.316   5.299   5.228
  980OM     OM1  980   6.009   5.372   5.022
  981OM     OM1  981   0.063   5.591   5.022
  982OM     OM1  982   0.316   5.445   5.435
  983OM     OM1  983   0.443   5.225   5.435
  984OM     OM1  984   0.190   5.664   5.435
  985OM     OM1  985   0.443   5.664   5.435
  986OM     OM1  986   0.316   5.591   5.642
  987OM     OM1  987   0.316   5.737   5.848
  988OM     OM1  988   0.190   5.518   5.848
  989OM     OM1  989   0.443   5.518   5.848
  990OM     OM1  990   6.009   5.518   5.848
  991OM     OM1  991   0.316   5.883   6.055
  992OM     OM1  992   0.190   5.810   0.062
  993OM     OM1  993   0.443   5.810   0.062
  994OM     OM1  994   6.009   5.810   0.062
  995OM     OM1  995   0.063   5.737   0.268
  996OM     OM1  996   6.009   5.664   0.475
  997OM     OM1  997   0.063   5.883   0.475
  998OM     OM1  998   6.009   6.102   0.475
  999OM     OM1  999   0.063   6.029   0.682
 1000OM     OM1 1000   0.316   5.883   1.095
 1001OM     OM1 1001   0.190   5.956   0.888
 1002OM     OM1 1002   0.443   5.956   0.888
 1003OM     OM1 1003   6.009   5.956   0.888
 1004OM     OM1 1004   0.190   5.810   1.302
 1005OM     OM1 1005   0.443   5.810   1.302
 1006OM     OM1 1006   6.009   5.810   1.302
 1007OM     OM1 1007   0.063   5.737   1.508
 1008OM     OM1 1008   6.009   5.664   1.715
 1009OM     OM1 1009   0.063   5.883   1.715
 1010OM     OM1 1010   6.009   6.102   1.715
 1011OM     OM1 1011   0.063   6.029   1.922
 1012OM     OM1 1012   0.190   5.956   2.128
 1013OM     OM1 1013   0.443   5.956   2.128
 1014OM     OM1 1014   0.316   5.883   2.335
 1015OM     OM1 1015   6.009   5.956   2.128
 1016OM     OM1 1016   0.190   5.810   2.542
 1017OM     OM1 1017   0.443   5.810   2.542
 1018OM     OM1 1018   6.009   5.810   2.542
 1019OM     OM1 1019   0.063   5.737   2.748
 1020OM     OM1 1020   6.009   5.664   2.955
 1021OM     OM1 1021   0.063   5.883   2.955
 1022OM     OM1 1022   6.009   6.102   2.955
 1023OM     OM1 1023   0.063   6.029   3.162
 1024OM     OM1 1024   0.190   5.956   3.368
 1025OM     OM1 1025   0.443   5.956   3.368
 1026OM     OM1 1026   0.316   5.883   3.575
 1027OM     OM1 1027   6.009   5.956   3.368
 1028OM     OM1 1028   0.190   5.810   3.782
 1029OM     OM1 1029   0.443   5.810   3.782
 1030OM     OM1 1030   6.009   5.810   3.782
 1031OM     OM1 1031   0.063   5.737   3.988
 1032OM     OM1 1032   6.009   5.664   4.195
 1033OM     OM1 1033   0.063   5.883   4.195
 1034OM     OM1 1034   6.009   6.102   4.195
 1035OM     OM1 1035   0.063   6.029   4.402
 1036OM     OM1 1036   0.190   5.956   4.608
 1037OM     OM1 1037   0.443   5.956   4.608
 1038OM     OM1 1038   0.316   5.883   4.815
 1039OM     OM1 1039   6.009   5.956   4.608
 1040OM     OM1 1040   0.190   5.810   5.022
 1041OM     OM1 1041   0.443   5.810   5.022
 1042OM     OM1 1042   6.009   5.810   5.022
 1043OM     OM1 1043   0.063   5.737   5.228
 1044OM     OM1 1044   6.009   5.664   5.435
 1045OM     OM1 1045   0.063   5.883   5.435
 1046OM     OM1 1046   6.009   6.102   5.435
 1047OM     OM1 1047   0.063   6.029   5.642
 1048OM     OM1 1048   0.190   5.956   5.848
 1049OM     OM1 1049   0.443   5.956   5.848
 1050OM     OM1 1050   6.009   5.956   5.848
 1051OM     OM1 1051   0.569   0.183   6.055
 1052OM     OM1 1052   0.696   0.110   0.062
 1053OM     OM1 1053   0.569   0.329   0.062
 1054OM     OM1 1054   0.569   0.183   1.095
 1055OM     OM1 1055   0.696   0.256   0.888
 1056OM     OM1 1056   0.569   0.036   0.888
 1057OM     OM1 1057   0.696   0.110   1.302
 1058OM     OM1 1058   0.569   0.329   1.302
 1059OM     OM1 1059   0.696   0.256   2.128
 1060OM     OM1 1060   0.569   0.036   2.128
 1061OM     OM1 1061   0.569   0.183   2.335
 1062OM     OM1 1062   0.696   0.110   2.542
 1063OM     OM1 1063   0.569   0.329   2.542
 1064OM     OM1 1064   0.696   0.256   3.368
 1065OM     OM1 1065   0.569   0.036   3.368
 1066OM     OM1 1066   0.569   0.183   3.575
 1067OM     OM1 1067   0.696   0.110   3.782
 1068OM     OM1 1068   0.569   0.329   3.782
 1069OM     OM1 1069   0.696   0.256   4.608
 1070OM     OM1 1070   0.569   0.036   4.608
 1071OM     OM1 1071   0.569   0.183   4.815
 1072OM     OM1 1072   0.696   0.110   5.022
 1073OM     OM1 1073   0.569   0.329   5.022
 1074OM     OM1 1074   0.696   0.256   5.848
 1075OM     OM1 1075   0.569   0.036   5.848
 1076OM     OM1 1076   0.696   0.548   0.062
 1077OM     OM1 1077   0.569   0.475   0.268
 1078OM     OM1 1078   0.696   0.402   0.475
 1079OM     OM1 1079   0.569   0.621   0.475
 1080OM     OM1 1080   0.696   0.840   0.475
 1081OM     OM1 1081   0.569   0.767   0.682
 1082OM     OM1 1082   0.569   0.913   0.888
 1083OM     OM1 1083   0.696   0.694   0.888
 1084OM     OM1 1084   0.696   0.548   1.302
 1085OM     OM1 1085   0.569   0.475   1.508
 1086OM     OM1 1086   0.696   0.402   1.715
 1087OM     OM1 1087   0.569   0.621   1.715
 1088OM     OM1 1088   0.696   0.840   1.715
 1089OM     OM1 1089   0.569   0.767   1.922
 1090OM     OM1 1090   0.569   0.913   2.128
 1091OM     OM1 1091   0.696   0.694   2.128
 1092OM     OM1 1092   0.696   0.548   2.542
 1093OM     OM1 1093   0.569   0.475   2.748
 1094OM     OM1 1094   0.696   0.402   2.955
 1095OM     OM1 1095   0.569   0.621   2.955
 1096OM     OM1 1096   0.696   0.840   2.955
 1097OM     OM1 1097   0.569   0.767   3.162
 1098OM     OM1 1098   0.569   0.913   3.368
 1099OM     OM1 1099   0.696   0.694   3.368
 1100OM     OM1 1100   0.696   0.548   3.782
 1101OM     OM1 1101   0.569   0.475   3.988
 1102OM     OM1 1102   0.696   0.402   4.195
 1103OM     OM1 1103   0.569   0.621   4.195
 1104OM     OM1 1104   0.696   0.840   4.195
 1105OM     OM1 1105   0.569   0.767   4.402
 1106OM     OM1 1106   0.569   0.913   4.608
 1107OM     OM1 1107   0.696   0.694   4.608
 1108OM     OM1 1108   0.696   0.548   5.022
 1109OM     OM1 1109   0.569   0.475   5.228
 1110OM     OM1 1110   0.696   0.402   5.435
 1111OM     OM1 1111   0.569   0.621   5.435
 1112OM     OM1 1112   0.696   0.840   5.435
 1113OM     OM1 1113   0.569   0.767   5.642
 1114OM     OM1 1114   0.569   0.913   5.848
 1115OM     OM1 1115   0.696   0.694   5.848
 1116OM     OM1 1116   0.569   1.060   6.055
 1117OM     OM1 1117   0.569   1.206   0.062
 1118OM     OM1 1118   0.696   0.987   0.062
 1119OM     OM1 1119   0.569   1.060   1.095
 1120OM     OM1 1120   0.696   1.133   0.888
 1121OM     OM1 1121   0.569   1.206   1.302
 1122OM     OM1 1122   0.696   0.987   1.302
 1123OM     OM1 1123   0.696   1.133   2.128
 1124OM     OM1 1124   0.569   1.060   2.335
 1125OM     OM1 1125   0.569   1.206   2.542
 1126OM     OM1 1126   0.696   0.987   2.542
 1127OM     OM1 1127   0.696   1.133   3.368
 1128OM     OM1 1128   0.569   1.060   3.575
 1129OM     OM1 1129   0.569   1.206   3.782
 1130OM     OM1 1130   0.696   0.987   3.782
 1131OM     OM1 1131   0.696   1.133   4.608
 1132OM     OM1 1132   0.569   1.060   4.815
 1133OM     OM1 1133   0.569   1.206   5.022
 1134OM     OM1 1134   0.696   0.987   5.022
 1135OM     OM1 1135   0.696   1.133   5.848
 1136OM     OM1 1136   0.696   1.425   0.062
 1137OM     OM1 1137   0.569   1.352   0.268
 1138OM     OM1 1138   0.696   1.279   0.475
 1139OM     OM1 1139   0.569   1.498   0.475
 1140OM     OM1 1140   0.696   1.425   1.302
 1141OM     OM1 1141   0.569   1.352   1.508
 1142OM     OM1 1142   0.696   1.279   1.715
 1143OM     OM1 1143   0.569   1.498   1.715
 1144OM     OM1 1144   0.696   1.425   2.542
 1145OM     OM1 1145   0.569   1.352   2.748
 1146OM     OM1 1146   0.696   1.279   2.955
 1147OM     OM1 1147   0.569   1.498   2.955
 1148OM     OM1 1148   0.696   1.425   3.782
 1149OM     OM1 1149   0.569   1.352   3.988
 1150OM     OM1 1150   0.696   1.279   4.195
 1151OM     OM1 1151   0.569   1.498   4.195
 1152OM     OM1 1152   0.696   1.425   5.022
 1153OM     OM1 1153   0.569   1.352   5.228
 1154OM     OM1 1154   0.696   1.279   5.435
 1155OM     OM1 1155   0.569   1.498   5.435
 1156OM     OM1 1156   0.569   1.937   6.055
 1157OM     OM1 1157   0.569   2.083   0.062
 1158OM     OM1 1158   0.696   1.864   0.062
 1159OM     OM1 1159   0.696   1.717   0.475
 1160OM     OM1 1160   0.569   1.644   0.682
 1161OM     OM1 1161   0.569   1.791   0.888
 1162OM     OM1 1162   0.696   1.571   0.888
 1163OM     OM1 1163   0.696   2.010   0.888
 1164OM     OM1 1164   0.569   1.937   1.095
 1165OM     OM1 1165   0.569   2.083   1.302
 1166OM     OM1 1166   0.696   1.864   1.302
 1167OM     OM1 1167   0.696   1.717   1.715
 1168OM     OM1 1168   0.569   1.644   1.922
 1169OM     OM1 1169   0.569   1.791   2.128
 1170OM     OM1 1170   0.696   1.571   2.128
 1171OM     OM1 1171   0.696   2.010   2.128
 1172OM     OM1 1172   0.569   1.937   2.335
 1173OM     OM1 1173   0.569   2.083   2.542
 1174OM     OM1 1174   0.696   1.864   2.542
 1175OM     OM1 1175   0.696   1.717   2.955
 1176OM     OM1 1176   0.569   1.644   3.162
 1177OM     OM1 1177   0.569   1.791   3.368
 1178OM     OM1 1178   0.696   1.571   3.368
 1179OM     OM1 1179   0.696   2.010   3.368
 1180OM     OM1 1180   0.569   1.937   3.575
 1181OM     OM1 1181   0.569   2.083   3.782
 1182OM     OM1 1182   0.696   1.864   3.782
 1183OM     OM1 1183   0.696   1.717   4.195
 1184OM     OM1 1184   0.569   1.644   4.402
 1185OM     OM1 1185   0.569   1.791   4.608
 1186OM     OM1 1186   0.696   1.571   4.608
 1187OM     OM1 1187   0.696   2.010   4.608
 1188OM     OM1 1188   0.569   1.937   4.815
 1189OM     OM1 1189   0.569   2.083   5.022
 1190OM     OM1 1190   0.696   1.864   5.022
 1191OM     OM1 1191   0.696   1.717   5.435
 1192OM     OM1 1192   0.569   1.644   5.642
 1193OM     OM1 1193   0.569   1.791   5.848
 1194OM     OM1 1194   0.696   1.571   5.848
 1195OM     OM1 1195   0.696   2.010   5.848
 1196OM     OM1 1196   0.696   2.302   0.062
 1197OM     OM1 1197   0.569   2.229   0.268
 1198OM     OM1 1198   0.696   2.156   0.475
 1199OM     OM1 1199   0.569   2.375   0.475
 1200OM     OM1 1200   0.696   2.302   1.302
 1201OM     OM1 1201   0.569   2.229   1.508
 1202OM     OM1 1202   0.696   2.156   1.715
 1203OM     OM1 1203   0.569   2.375   1.715
 1204OM     OM1 1204   0.696   2.302   2.542
 1205OM     OM1 1205   0.569   2.229   2.748
 1206OM     OM1 1206   0.696   2.156   2.955
 1207OM     OM1 1207   0.569   2.375   2.955
 1208OM     OM1 1208   0.696   2.302   3.782
 1209OM     OM1 1209   0.569   2.229   3.988
 1210OM     OM1 1210   0.696   2.156   4.195
 1211OM     OM1 1211   0.569   2.375   4.195
 1212OM     OM1 1212   0.696   2.302   5.022
 1213OM     OM1 1213   0.569   2.229   5.228
 1214OM     OM1 1214   0.696   2.156   5.435
 1215OM     OM1 1215   0.569   2.375   5.435
 1216OM     OM1 1216   0.696   2.594   0.475
 1217OM     OM1 1217   0.569   2.521   0.682
 1218OM     OM1 1218   0.696   2.448   0.888
 1219OM     OM1 1219   0.569   2.668   0.888
 1220OM     OM1 1220   0.696   2.594   1.715
 1221OM     OM1 1221   0.569   2.521   1.922
 1222OM     OM1 1222   0.696   2.448   2.128
 1223OM     OM1 1223   0.569   2.668   2.128
 1224OM     OM1 1224   0.696   2.594   2.955
 1225OM     OM1 1225   0.569   2.521   3.162
 1226OM     OM1 1226   0.696   2.448   3.368
 1227OM     OM1 1227   0.569   2.668   3.368
 1228OM     OM1 1228   0.696   2.594   4.195
 1229OM     OM1 1229   0.569   2.521   4.402
 1230OM     OM1 1230   0.696   2.448   4.608
 1231OM     OM1 1231   0.569   2.668   4.608
 1232OM     OM1 1232   0.696   2.594   5.435
 1233OM     OM1 1233   0.569   2.521   5.642
 1234OM     OM1 1234   0.696   2.448   5.848
 1235OM     OM1 1235   0.569   2.668   5.848
 1236OM     OM1 1236   0.569   2.814   6.055
 1237OM     OM1 1237   0.569   2.960   0.062
 1238OM     OM1 1238   0.696   2.741   0.062
 1239OM     OM1 1239   0.696   3.179   0.062
 1240OM     OM1 1240   0.569   3.106   0.268
 1241OM     OM1 1241   0.569   3.252   0.475
 1242OM     OM1 1242   0.696   3.033   0.475
 1243OM     OM1 1243   0.569   2.814   1.095
 1244OM     OM1 1244   0.696   2.887   0.888
 1245OM     OM1 1245   0.569   2.960   1.302
 1246OM     OM1 1246   0.696   2.741   1.302
 1247OM     OM1 1247   0.696   3.179   1.302
 1248OM     OM1 1248   0.569   3.106   1.508
 1249OM     OM1 1249   0.569   3.252   1.715
 1250OM     OM1 1250   0.696   3.033   1.715
 1251OM     OM1 1251   0.696   2.887   2.128
 1252OM     OM1 1252   0.569   2.814   2.335
 1253OM     OM1 1253   0.569   2.960   2.542
 1254OM     OM1 1254   0.696   2.741   2.542
 1255OM     OM1 1255   0.696   3.179   2.542
 1256OM     OM1 1256   0.569   3.106   2.748
 1257OM     OM1 1257   0.569   3.252   2.955
 1258OM     OM1 1258   0.696   3.033   2.955
 1259OM     OM1 1259   0.696   2.887   3.368
 1260OM     OM1 1260   0.569   2.814   3.575
 1261OM     OM1 1261   0.569   2.960   3.782
 1262OM     OM1 1262   0.696   2.741   3.782
 1263OM     OM1 1263   0.696   3.179   3.782
 1264OM     OM1 1264   0.569   3.106   3.988
 1265OM     OM1 1265   0.569   3.252   4.195
 1266OM     OM1 1266   0.696   3.033   4.195
 1267OM     OM1 1267   0.696   2.887   4.608
 1268OM     OM1 1268   0.569   2.814   4.815
 1269OM     OM1 1269   0.569   2.960   5.022
 1270OM     OM1 1270   0.696   2.741   5.022
 1271OM     OM1 1271   0.696   3.179   5.022
 1272OM     OM1 1272   0.569   3.106   5.228
 1273OM     OM1 1273   0.569   3.252   5.435
 1274OM     OM1 1274   0.696   3.033   5.435
 1275OM     OM1 1275   0.696   2.887   5.848
 1276OM     OM1 1276   0.696   3.471   0.475
 1277OM     OM1 1277   0.569   3.398   0.682
 1278OM     OM1 1278   0.696   3.325   0.888
 1279OM     OM1 1279   0.569   3.545   0.888
 1280OM     OM1 1280   0.696   3.471   1.715
 1281OM     OM1 1281   0.569   3.398   1.922
 1282OM     OM1 1282   0.696   3.325   2.128
 1283OM     OM1 1283   0.569   3.545   2.128
 1284OM     OM1 1284   0.696   3.471   2.955
 1285OM     OM1 1285   0.569   3.398   3.162
 1286OM     OM1 1286   0.696   3.325   3.368
 1287OM     OM1 1287   0.569   3.545   3.368
 1288OM     OM1 1288   0.696   3.471   4.195
 1289OM     OM1 1289   0.569   3.398   4.402
 1290OM     OM1 1290   0.696   3.325   4.608
 1291OM     OM1 1291   0.569   3.545   4.608
 1292OM     OM1 1292   0.696   3.471   5.435
 1293OM     OM1 1293   0.569   3.398   5.642
 1294OM     OM1 1294   0.696   3.325   5.848
 1295OM     OM1 1295   0.569   3.545   5.848
 1296OM     OM1 1296   0.569   3.691   6.055
 1297OM     OM1 1297   0.696   3.618   0.062
 1298OM     OM1 1298   0.569   3.837   0.062
 1299OM     OM1 1299   0.696   4.056   0.062
 1300OM     OM1 1300   0.569   3.983   0.268
 1301OM     OM1 1301   0.569   4.129   0.475
 1302OM     OM1 1302   0.696   3.910   0.475
 1303OM     OM1 1303   0.569   3.691   1.095
 1304OM     OM1 1304   0.696   3.764   0.888
 1305OM     OM1 1305   0.696   3.618   1.302
 1306OM     OM1 1306   0.569   3.837   1.302
 1307OM     OM1 1307   0.696   4.056   1.302
 1308OM     OM1 1308   0.569   3.983   1.508
 1309OM     OM1 1309   0.569   4.129   1.715
 1310OM     OM1 1310   0.696   3.910   1.715
 1311OM     OM1 1311   0.696   3.764   2.128
 1312OM     OM1 1312   0.569   3.691   2.335
 1313OM     OM1 1313   0.696   3.618   2.542
 1314OM     OM1 1314   0.569   3.837   2.542
 1315OM     OM1 1315   0.696   4.056   2.542
 1316OM     OM1 1316   0.569   3.983   2.748
 1317OM     OM1 1317   0.569   4.129   2.955
 1318OM     OM1 1318   0.696   3.910   2.955
 1319OM     OM1 1319   0.696   3.764   3.368
 1320OM     OM1 1320   0.569   3.691   3.575
 1321OM     OM1 1321   0.696   3.618   3.782
 1322OM     OM1 1322   0.569   3.837   3.782
 1323OM     OM1 1323   0.696   4.056   3.782
 1324OM     OM1 1324   0.569   3.983   3.988
 1325OM     OM1 1325   0.569   4.129   4.195
 1326OM     OM1 1326   0.696   3.910   4.195
 1327OM     OM1 1327   0.696   3.764   4.608
 1328OM     OM1 1328   0.569   3.691   4.815
 1329OM     OM1 1329   0.696   3.618   5.022
 1330OM     OM1 1330   0.569   3.837   5.022
 1331OM     OM1 1331   0.696   4.056   5.022
 1332OM     OM1 1332   0.569   3.983   5.228
 1333OM     OM1 1333   0.569   4.129   5.435
 1334OM     OM1 1334   0.696   3.910   5.435
 1335OM     OM1 1335   0.696   3.764   5.848
 1336OM     OM1 1336   0.696   4.348   0.475
 1337OM     OM1 1337   0.569   4.275   0.682
 1338OM     OM1 1338   0.569   4.422   0.888
 1339OM     OM1 1339   0.696   4.202   0.888
 1340OM     OM1 1340   0.696   4.348   1.715
 1341OM     OM1 1341   0.569   4.275   1.922
 1342OM     OM1 1342   0.569   4.422   2.128
 1343OM     OM1 1343   0.696   4.202   2.128
 1344OM     OM1 1344   0.696   4.348   2.955
 1345OM     OM1 1345   0.569   4.275   3.162
 1346OM     OM1 1346   0.569   4.422   3.368
 1347OM     OM1 1347   0.696   4.202   3.368
 1348OM     OM1 1348   0.696   4.348   4.195
 1349OM     OM1 1349   0.569   4.275   4.402
 1350OM     OM1 1350   0.569   4.422   4.608
 1351OM     OM1 1351   0.696   4.202   4.608
 1352OM     OM1 1352   0.696   4.348   5.435
 1353OM     OM1 1353   0.569   4.275   5.642
 1354OM     OM1 1354   0.569   4.422   5.848
 1355OM     OM1 1355   0.696   4.202   5.848
 1356OM     OM1 1356   0.569   4.568   6.055
 1357OM     OM1 1357   0.696   4.495   0.062
 1358OM     OM1 1358   0.569   4.714   0.062
 1359OM     OM1 1359   0.569   4.568   1.095
 1360OM     OM1 1360   0.696   4.641   0.888
 1361OM     OM1 1361   0.696   4.495   1.302
 1362OM     OM1 1362   0.569   4.714   1.302
 1363OM     OM1 1363   0.696   4.641   2.128
 1364OM     OM1 1364   0.569   4.568   2.335
 1365OM     OM1 1365   0.696   4.495   2.542
 1366OM     OM1 1366   0.569   4.714   2.542
 1367OM     OM1 1367   0.696   4.641   3.368
 1368OM     OM1 1368   0.569   4.568   3.575
 1369OM     OM1 1369   0.696   4.495   3.782
 1370OM     OM1 1370   0.569   4.714   3.782
 1371OM     OM1 1371   0.696   4.641   4.608
 1372OM     OM1 1372   0.569   4.568   4.815
 1373OM     OM1 1373   0.696   4.495   5.022
 1374OM     OM1 1374   0.569   4.714   5.022
 1375OM     OM1 1375   0.696   4.641   5.848
 1376OM     OM1 1376   0.696   4.933   0.062
 1377OM     OM1 1377   0.569   4.860   0.268
 1378OM     OM1 1378   0.569   5.006   0.475
 1379OM     OM1 1379   0.696   4.787   0.475
 1380OM     OM1 1380   0.696   5.225   0.475
 1381OM     OM1 1381   0.569   5.152   0.682
 1382OM     OM1 1382   0.569   5.299   0.888
 1383OM     OM1 1383   0.696   5.079   0.888
 1384OM     OM1 1384   0.696   4.933   1.302
 1385OM     OM1 1385   0.569   4.860   1.508
 1386OM     OM1 1386   0.569   5.006   1.715
 1387OM     OM1 1387   0.696   4.787   1.715
 1388OM     OM1 1388   0.696   5.225   1.715
 1389OM     OM1 1389   0.569   5.152   1.922
 1390OM     OM1 1390   0.569   5.299   2.128
 1391OM     OM1 1391   0.696   5.079   2.128
 1392OM     OM1 1392   0.696   4.933   2.542
 1393OM     OM1 1393   0.569   4.860   2.748
 1394OM     OM1 1394   0.569   5.006   2.955
 1395OM     OM1 1395   0.696   4.787   2.955
 1396OM     OM1 1396   0.696   5.225   2.955
 1397OM     OM1 1397   0.569   5.152   3.162
 1398OM     OM1 1398   0.569   5.299   3.368
 1399OM     OM1 1399   0.696   5.079   3.368
 1400OM     OM1 1400   0.696   4.933   3.782
 1401OM     OM1 1401   0.569   4.860   3.988
 1402OM     OM1 1402   0.569   5.006   4.195
 1403OM     OM1 1403   0.696   4.787   4.195
 1404OM     OM1 1404   0.696   5.225   4.195
 1405OM     OM1 1405   0.569   5.152   4.402
 1406OM     OM1 1406   0.569   5.299   4.608
 1407OM     OM1 1407   0.696   5.079   4.608
 1408OM     OM1 1408   0.696   4.933   5.022
 1409OM     OM1 1409   0.569   4.860   5.228
 1410OM     OM1 1410   0.569   5.006   5.435
 1411OM     OM1 1411   0.696   4.787   5.435
 1412OM     OM1 1412   0.696   5.225   5.435
 1413OM     OM1 1413   0.569   5.152   5.642
 1414OM     OM1 1414   0.569   5.299   5.848
 1415OM     OM1 1415   0.696   5.079   5.848
 1416OM     OM1 1416   0.569   5.445   6.055
 1417OM     OM1 1417   0.696   5.372   0.062
 1418OM     OM1 1418   0.569   5.591   0.062
 1419OM     OM1 1419   0.569   5.445   1.095
 1420OM     OM1 1420   0.696   5.518   0.888
 1421OM     OM1 1421   0.696   5.372   1.302
 1422OM     OM1 1422   0.569   5.591   1.302
 1423OM     OM1 1423   0.696   5.518   2.128
 1424OM     OM1 1424   0.569   5.445   2.335
 1425OM     OM1 1425   0.696   5.372   2.542
 1426OM     OM1 1426   0.569   5.591   2.542
 1427OM     OM1 1427   0.696   5.518   3.368
 1428OM     OM1 1428   0.569   5.445   3.575
 1429OM     OM1 1429   0.696   5.372   3.782
 1430OM     OM1 1430   0.569   5.591   3.782
 1431OM     OM1 1431   0.696   5.518   4.608
 1432OM     OM1 1432   0.569   5.445   4.815
 1433OM     OM1 1433   0.696   5.372   5.022
 1434OM     OM1 1434   0.569   5.591   5.022
 1435OM     OM1 1435   0.696   5.518   5.848
 1436OM     OM1 1436   0.696   5.810   0.062
 1437OM     OM1 1437   0.569   5.737   0.268
 1438OM     OM1 1438   0.696   5.664   0.475
 1439OM     OM1 1439   0.569   5.883   0.475
 1440OM     OM1 1440   0.696   6.102   0.475
 1441OM     OM1 1441   0.569   6.029   0.682
 1442OM     OM1 1442   0.696   5.956   0.888
 1443OM     OM1 1443   0.696   5.810   1.302
 1444OM     OM1 1444   0.569   5.737   1.508
 1445OM     OM1 1445   0.696   5.664   1.715
 1446OM     OM1 1446   0.569   5.883   1.715
 1447OM     OM1 1447   0.696   6.102   1.715
 1448OM     OM1 1448   0.569   6.029   1.922
 1449OM     OM1 1449   0.696   5.956   2.128
 1450OM     OM1 1450   0.696   5.810   2.542
 1451OM     OM1 1451   0.569   5.737   2.748
 1452OM     OM1 1452   0.696   5.664   2.955
 1453OM     OM1 1453   0.569   5.883   2.955
 1454OM     OM1 1454   0.696   6.102   2.955
 1455OM     OM1 1455   0.569   6.029   3.162
 1456OM     OM1 1456   0.696   5.956   3.368
 1457OM     OM1 1457   0.696   5.810   3.782
 1458OM     OM1 1458   0.569   5.737   3.988
 1459OM     OM1 1459   0.696   5.664   4.195
 1460OM     OM1 1460   0.569   5.883   4.195
 1461OM     OM1 1461   0.696   6.102   4.195
 1462OM     OM1 1462   0.569   6.029   4.402
 1463OM     OM1 1463   0.696   5.956   4.608
 1464OM     OM1 1464   0.696   5.810   5.022
 1465OM     OM1 1465   0.569   5.737   5.228
 1466OM     OM1 1466   0.696   5.664   5.435
 1467OM     OM1 1467   0.569   5.883   5.435
 1468OM     OM1 1468   0.696   6.102   5.435
 1469OM     OM1 1469   0.569   6.029   5.642
 1470OM     OM1 1470   0.696   5.956   5.848
 1471OM     OM1 1471   0.949   0.110   0.062
 1472OM     OM1 1472   0.822   0.036   0.268
 1473OM     OM1 1473   0.822   6.029   0.062
 1474OM     OM1 1474   1.075   0.183   6.055
 1475OM     OM1 1475   1.075   0.329   0.062
 1476OM     OM1 1476   1.202   0.110   0.062
 1477OM     OM1 1477   0.822   0.183   0.475
 1478OM     OM1 1478   0.949   6.102   0.475
 1479OM     OM1 1479   0.949   0.402   0.475
 1480OM     OM1 1480   0.822   0.329   0.682
 1481OM     OM1 1481   0.822   0.475   0.888
 1482OM     OM1 1482   0.949   0.256   0.888
 1483OM     OM1 1483   1.075   0.183   1.095
 1484OM     OM1 1484   1.075   0.036   0.888
 1485OM     OM1 1485   1.202   0.256   0.888
 1486OM     OM1 1486   0.949   0.110   1.302
 1487OM     OM1 1487   0.822   0.036   1.508
 1488OM     OM1 1488   0.822   6.029   1.302
 1489OM     OM1 1489   1.075   0.329   1.302
 1490OM     OM1 1490   1.202   0.110   1.302
 1491OM     OM1 1491   0.822   0.183   1.715
 1492OM     OM1 1492   0.949   6.102   1.715
 1493OM     OM1 1493   0.949   0.402   1.715
 1494OM     OM1 1494   0.822   0.329   1.922
 1495OM     OM1 1495   0.822   0.475   2.128
 1496OM     OM1 1496   0.949   0.256   2.128
 1497OM     OM1 1497   1.075   0.036   2.128
 1498OM     OM1 1498   1.202   0.256   2.128
 1499OM     OM1 1499   1.075   0.183   2.335
 1500OM     OM1 1500   0.949   0.110   2.542
 1501OM     OM1 1501   0.822   6.029   2.542
 1502OM     OM1 1502   0.822   0.036   2.748
 1503OM     OM1 1503   1.075   0.329   2.542
 1504OM     OM1 1504   1.202   0.110   2.542
 1505OM     OM1 1505   0.822   0.183   2.955
 1506OM     OM1 1506   0.949   6.102   2.955
 1507OM     OM1 1507   0.949   0.402   2.955
 1508OM     OM1 1508   0.822   0.329   3.162
 1509OM     OM1 1509   0.822   0.475   3.368
 1510OM     OM1 1510   0.949   0.256   3.368
 1511OM     OM1 1511   1.075   0.036   3.368
 1512OM     OM1 1512   1.202   0.256   3.368
 1513OM     OM1 1513   1.075   0.183   3.575
 1514OM     OM1 1514   0.949   0.110   3.782
 1515OM     OM1 1515   0.822   6.029   3.782
 1516OM     OM1 1516   0.822   0.036   3.988
 1517OM     OM1 1517   1.075   0.329   3.782
 1518OM     OM1 1518   1.202   0.110   3.782
 1519OM     OM1 1519   0.822   0.183   4.195
 1520OM     OM1 1520   0.949   6.102   4.195
 1521OM     OM1 1521   0.949   0.402   4.195
 1522OM     OM1 1522   0.822   0.329   4.402
 1523OM     OM1 1523   0.822   0.475   4.608
 1524OM     OM1 1524   0.949   0.256   4.608
 1525OM     OM1 1525   1.075   0.036   4.608
 1526OM     OM1 1526   1.202   0.256   4.608
 1527OM     OM1 1527   1.075   0.183   4.815
 1528OM     OM1 1528   0.949   0.110   5.022
 1529OM     OM1 1529   0.822   6.029   5.022
 1530OM     OM1 1530   0.822   0.036   5.228
 1531OM     OM1 1531   1.075   0.329   5.022
 1532OM     OM1 1532   1.202   0.110   5.022
 1533OM     OM1 1533   0.822   0.183   5.435
 1534OM     OM1 1534   0.949   6.102   5.435
 1535OM     OM1 1535   0.949   0.402   5.435
 1536OM     OM1 1536   0.822   0.329   5.642
 1537OM     OM1 1537   0.822   0.475   5.848
 1538OM     OM1 1538   0.949   0.256   5.848
 1539OM     OM1 1539   1.075   0.036   5.848
 1540OM     OM1 1540   1.202   0.256   5.848
 1541OM     OM1 1541   0.822   0.621   6.055
 1542OM     OM1 1542   0.949   0.548   0.062
 1543OM     OM1 1543   0.822   0.767   0.062
 1544OM     OM1 1544   1.075   0.475   0.268
 1545OM     OM1 1545   1.202   0.548   0.062
 1546OM     OM1 1546   1.075   0.621   0.475
 1547OM     OM1 1547   1.202   0.402   0.475
 1548OM     OM1 1548   0.949   0.840   0.475
 1549OM     OM1 1549   1.202   0.840   0.475
 1550OM     OM1 1550   1.075   0.767   0.682
 1551OM     OM1 1551   0.822   0.621   1.095
 1552OM     OM1 1552   0.949   0.694   0.888
 1553OM     OM1 1553   1.075   0.913   0.888
 1554OM     OM1 1554   1.202   0.694   0.888
 1555OM     OM1 1555   0.949   0.548   1.302
 1556OM     OM1 1556   0.822   0.767   1.302
 1557OM     OM1 1557   1.075   0.475   1.508
 1558OM     OM1 1558   1.202   0.548   1.302
 1559OM     OM1 1559   1.075   0.621   1.715
 1560OM     OM1 1560   1.202   0.402   1.715
 1561OM     OM1 1561   0.949   0.840   1.715
 1562OM     OM1 1562   1.202   0.840   1.715
 1563OM     OM1 1563   1.075   0.767   1.922
 1564OM     OM1 1564   0.949   0.694   2.128
 1565OM     OM1 1565   0.822   0.621   2.335
 1566OM     OM1 1566   1.075   0.913   2.128
 1567OM     OM1 1567   1.202   0.694   2.128
 1568OM     OM1 1568   0.949   0.548   2.542
 1569OM     OM1 1569   0.822   0.767   2.542
 1570OM     OM1 1570   1.202   0.548   2.542
 1571OM     OM1 1571   1.075   0.475   2.748
 1572OM     OM1 1572   1.075   0.621   2.955
 1573OM     OM1 1573   1.202   0.402   2.955
 1574OM     OM1 1574   0.949   0.840   2.955
 1575OM     OM1 1575   1.202   0.840   2.955
 1576OM     OM1 1576   1.075   0.767   3.162
 1577OM     OM1 1577   0.949   0.694   3.368
 1578OM     OM1 1578   0.822   0.621   3.575
 1579OM     OM1 1579   1.075   0.913   3.368
 1580OM     OM1 1580   1.202   0.694   3.368
 1581OM     OM1 1581   0.949   0.548   3.782
 1582OM     OM1 1582   0.822   0.767   3.782
 1583OM     OM1 1583   1.202   0.548   3.782
 1584OM     OM1 1584   1.075   0.475   3.988
 1585OM     OM1 1585   1.075   0.621   4.195
 1586OM     OM1 1586   1.202   0.402   4.195
 1587OM     OM1 1587   0.949   0.840   4.195
 1588OM     OM1 1588   1.202   0.840   4.195
 1589OM     OM1 1589   1.075   0.767   4.402
 1590OM     OM1 1590   0.949   0.694   4.608
 1591OM     OM1 1591   0.822   0.621   4.815
 1592OM     OM1 1592   1.075   0.913   4.608
 1593OM     OM1 1593   1.202   0.694   4.608
 1594OM     OM1 1594   0.949   0.548   5.022
 1595OM     OM1 1595   0.822   0.767   5.022
 1596OM     OM1 1596   1.202   0.548   5.022
 1597OM     OM1 1597   1.075   0.475   5.228
 1598OM     OM1 1598   1.075   0.621   5.435
 1599OM     OM1 1599   1.202   0.402   5.435
 1600OM     OM1 1600   0.949   0.840   5.435
 1601OM     OM1 1601   1.202   0.840   5.435
 1602OM     OM1 1602   1.075   0.767   5.642
 1603OM     OM1 1603   0.949   0.694   5.848
 1604OM     OM1 1604   1.075   0.913   5.848
 1605OM     OM1 1605   1.202   0.694   5.848
 1606OM     OM1 1606   0.949   0.987   0.062
 1607OM     OM1 1607   0.822   0.913   0.268
 1608OM     OM1 1608   1.075   1.060   6.055
 1609OM     OM1 1609   1.075   1.206   0.062
 1610OM     OM1 1610   1.202   0.987   0.062
 1611OM     OM1 1611   0.822   1.060   0.475
 1612OM     OM1 1612   0.949   1.133   0.888
 1613OM     OM1 1613   1.075   1.060   1.095
 1614OM     OM1 1614   1.202   1.133   0.888
 1615OM     OM1 1615   0.949   0.987   1.302
 1616OM     OM1 1616   0.822   0.913   1.508
 1617OM     OM1 1617   1.075   1.206   1.302
 1618OM     OM1 1618   1.202   0.987   1.302
 1619OM     OM1 1619   0.822   1.060   1.715
 1620OM     OM1 1620   0.949   1.133   2.128
 1621OM     OM1 1621   1.202   1.133   2.128
 1622OM     OM1 1622   1.075   1.060   2.335
 1623OM     OM1 1623   0.949   0.987   2.542
 1624OM     OM1 1624   0.822   0.913   2.748
 1625OM     OM1 1625   1.075   1.206   2.542
 1626OM     OM1 1626   1.202   0.987   2.542
 1627OM     OM1 1627   0.822   1.060   2.955
 1628OM     OM1 1628   0.949   1.133   3.368
 1629OM     OM1 1629   1.202   1.133   3.368
 1630OM     OM1 1630   1.075   1.060   3.575
 1631OM     OM1 1631   0.949   0.987   3.782
 1632OM     OM1 1632   0.822   0.913   3.988
 1633OM     OM1 1633   1.075   1.206   3.782
 1634OM     OM1 1634   1.202   0.987   3.782
 1635OM     OM1 1635   0.822   1.060   4.195
 1636OM     OM1 1636   0.949   1.133   4.608
 1637OM     OM1 1637   1.202   1.133   4.608
 1638OM     OM1 1638   1.075   1.060   4.815
 1639OM     OM1 1639   0.949   0.987   5.022
 1640OM     OM1 1640   0.822   0.913   5.228
 1641OM     OM1 1641   1.075   1.206   5.022
 1642OM     OM1 1642   1.202   0.987   5.022
 1643OM     OM1 1643   0.822   1.060   5.435
 1644OM     OM1 1644   0.949   1.133   5.848
 1645OM     OM1 1645   1.202   1.133   5.848
 1646OM     OM1 1646   0.822   1.498   6.055
 1647OM     OM1 1647   0.822   1.644   0.062
 1648OM     OM1 1648   0.949   1.425   0.062
 1649OM     OM1 1649   1.075   1.352   0.268
 1650OM     OM1 1650   1.202   1.425   0.062
 1651OM     OM1 1651   0.949   1.279   0.475
 1652OM     OM1 1652   0.822   1.206   0.682
 1653OM     OM1 1653   1.075   1.498   0.475
 1654OM     OM1 1654   1.202   1.279   0.475
 1655OM     OM1 1655   0.822   1.498   1.095
 1656OM     OM1 1656   0.822   1.352   0.888
 1657OM     OM1 1657   0.949   1.571   0.888
 1658OM     OM1 1658   0.822   1.644   1.302
 1659OM     OM1 1659   0.949   1.425   1.302
 1660OM     OM1 1660   1.075   1.352   1.508
 1661OM     OM1 1661   1.202   1.425   1.302
 1662OM     OM1 1662   0.949   1.279   1.715
 1663OM     OM1 1663   0.822   1.206   1.922
 1664OM     OM1 1664   1.075   1.498   1.715
 1665OM     OM1 1665   1.202   1.279   1.715
 1666OM     OM1 1666   0.822   1.352   2.128
 1667OM     OM1 1667   0.949   1.571   2.128
 1668OM     OM1 1668   0.822   1.498   2.335
 1669OM     OM1 1669   0.822   1.644   2.542
 1670OM     OM1 1670   0.949   1.425   2.542
 1671OM     OM1 1671   1.202   1.425   2.542
 1672OM     OM1 1672   1.075   1.352   2.748
 1673OM     OM1 1673   0.949   1.279   2.955
 1674OM     OM1 1674   0.822   1.206   3.162
 1675OM     OM1 1675   1.075   1.498   2.955
 1676OM     OM1 1676   1.202   1.279   2.955
 1677OM     OM1 1677   0.822   1.352   3.368
 1678OM     OM1 1678   0.949   1.571   3.368
 1679OM     OM1 1679   0.822   1.498   3.575
 1680OM     OM1 1680   0.822   1.644   3.782
 1681OM     OM1 1681   0.949   1.425   3.782
 1682OM     OM1 1682   1.202   1.425   3.782
 1683OM     OM1 1683   1.075   1.352   3.988
 1684OM     OM1 1684   0.949   1.279   4.195
 1685OM     OM1 1685   0.822   1.206   4.402
 1686OM     OM1 1686   1.075   1.498   4.195
 1687OM     OM1 1687   1.202   1.279   4.195
 1688OM     OM1 1688   0.822   1.352   4.608
 1689OM     OM1 1689   0.949   1.571   4.608
 1690OM     OM1 1690   0.822   1.498   4.815
 1691OM     OM1 1691   0.822   1.644   5.022
 1692OM     OM1 1692   0.949   1.425   5.022
 1693OM     OM1 1693   1.202   1.425   5.022
 1694OM     OM1 1694   1.075   1.352   5.228
 1695OM     OM1 1695   0.949   1.279   5.435
 1696OM     OM1 1696   0.822   1.206   5.642
 1697OM     OM1 1697   1.075   1.498   5.435
 1698OM     OM1 1698   1.202   1.279   5.435
 1699OM     OM1 1699   0.822   1.352   5.848
 1700OM     OM1 1700   0.949   1.571   5.848
 1701OM     OM1 1701   0.949   1.864   0.062
 1702OM     OM1 1702   0.822   1.791   0.268
 1703OM     OM1 1703   1.075   1.937   6.055
 1704OM     OM1 1704   1.075   2.083   0.062
 1705OM     OM1 1705   1.202   1.864   0.062
 1706OM     OM1 1706   0.949   1.717   0.475
 1707OM     OM1 1707   1.075   1.644   0.682
 1708OM     OM1 1708   1.202   1.717   0.475
 1709OM     OM1 1709   0.822   1.937   0.475
 1710OM     OM1 1710   1.075   1.791   0.888
 1711OM     OM1 1711   1.202   1.571   0.888
 1712OM     OM1 1712   0.949   2.010   0.888
 1713OM     OM1 1713   1.202   2.010   0.888
 1714OM     OM1 1714   1.075   1.937   1.095
 1715OM     OM1 1715   0.949   1.864   1.302
 1716OM     OM1 1716   0.822   1.791   1.508
 1717OM     OM1 1717   1.075   2.083   1.302
 1718OM     OM1 1718   1.202   1.864   1.302
 1719OM     OM1 1719   0.949   1.717   1.715
 1720OM     OM1 1720   1.075   1.644   1.922
 1721OM     OM1 1721   1.202   1.717   1.715
 1722OM     OM1 1722   0.822   1.937   1.715
 1723OM     OM1 1723   1.075   1.791   2.128
 1724OM     OM1 1724   1.202   1.571   2.128
 1725OM     OM1 1725   0.949   2.010   2.128
 1726OM     OM1 1726   1.202   2.010   2.128
 1727OM     OM1 1727   1.075   1.937   2.335
 1728OM     OM1 1728   0.949   1.864   2.542
 1729OM     OM1 1729   0.822   1.791   2.748
 1730OM     OM1 1730   1.075   2.083   2.542
 1731OM     OM1 1731   1.202   1.864   2.542
 1732OM     OM1 1732   0.949   1.717   2.955
 1733OM     OM1 1733   1.202   1.717   2.955
 1734OM     OM1 1734   1.075   1.644   3.162
 1735OM     OM1 1735   0.822   1.937   2.955
 1736OM     OM1 1736   1.075   1.791   3.368
 1737OM     OM1 1737   1.202   1.571   3.368
 1738OM     OM1 1738   0.949   2.010   3.368
 1739OM     OM1 1739   1.202   2.010   3.368
 1740OM     OM1 1740   1.075   1.937   3.575
 1741OM     OM1 1741   0.949   1.864   3.782
 1742OM     OM1 1742   0.822   1.791   3.988
 1743OM     OM1 1743   1.075   2.083   3.782
 1744OM     OM1 1744   1.202   1.864   3.782
 1745OM     OM1 1745   0.949   1.717   4.195
 1746OM     OM1 1746   1.202   1.717   4.195
 1747OM     OM1 1747   1.075   1.644   4.402
 1748OM     OM1 1748   0.822   1.937   4.195
 1749OM     OM1 1749   1.075   1.791   4.608
 1750OM     OM1 1750   1.202   1.571   4.608
 1751OM     OM1 1751   0.949   2.010   4.608
 1752OM     OM1 1752   1.202   2.010   4.608
 1753OM     OM1 1753   1.075   1.937   4.815
 1754OM     OM1 1754   0.949   1.864   5.022
 1755OM     OM1 1755   0.822   1.791   5.228
 1756OM     OM1 1756   1.075   2.083   5.022
 1757OM     OM1 1757   1.202   1.864   5.022
 1758OM     OM1 1758   0.949   1.717   5.435
 1759OM     OM1 1759   1.202   1.717   5.435
 1760OM     OM1 1760   1.075   1.644   5.642
 1761OM     OM1 1761   0.822   1.937   5.435
 1762OM     OM1 1762   1.075   1.791   5.848
 1763OM     OM1 1763   1.202   1.571   5.848
 1764OM     OM1 1764   0.949   2.010   5.848
 1765OM     OM1 1765   1.202   2.010   5.848
 1766OM     OM1 1766   0.822   2.375   6.055
 1767OM     OM1 1767   0.822   2.521   0.062
 1768OM     OM1 1768   0.949   2.302   0.062
 1769OM     OM1 1769   1.075   2.229   0.268
 1770OM     OM1 1770   0.949   2.156   0.475
 1771OM     OM1 1771   0.822   2.083   0.682
 1772OM     OM1 1772   1.075   2.375   0.475
 1773OM     OM1 1773   1.202   2.156   0.475
 1774OM     OM1 1774   0.949   2.448   0.888
 1775OM     OM1 1775   0.822   2.375   1.095
 1776OM     OM1 1776   0.822   2.229   0.888
 1777OM     OM1 1777   0.822   2.521   1.302
 1778OM     OM1 1778   0.949   2.302   1.302
 1779OM     OM1 1779   1.075   2.229   1.508
 1780OM     OM1 1780   0.949   2.156   1.715
 1781OM     OM1 1781   0.822   2.083   1.922
 1782OM     OM1 1782   1.075   2.375   1.715
 1783OM     OM1 1783   1.202   2.156   1.715
 1784OM     OM1 1784   0.949   2.448   2.128
 1785OM     OM1 1785   0.822   2.229   2.128
 1786OM     OM1 1786   0.822   2.375   2.335
 1787OM     OM1 1787   0.822   2.521   2.542
 1788OM     OM1 1788   0.949   2.302   2.542
 1789OM     OM1 1789   1.075   2.229   2.748
 1790OM     OM1 1790   0.949   2.156   2.955
 1791OM     OM1 1791   0.822   2.083   3.162
 1792OM     OM1 1792   1.075   2.375   2.955
 1793OM     OM1 1793   1.202   2.156   2.955
 1794OM     OM1 1794   0.949   2.448   3.368
 1795OM     OM1 1795   0.822   2.229   3.368
 1796OM     OM1 1796   0.822   2.375   3.575
 1797OM     OM1 1797   0.822   2.521   3.782
 1798OM     OM1 1798   0.949   2.302   3.782
 1799OM     OM1 1799   1.075   2.229   3.988
 1800OM     OM1 1800   0.949   2.156   4.195
 1801OM     OM1 1801   0.822   2.083   4.402
 1802OM     OM1 1802   1.075   2.375   4.195
 1803OM     OM1 1803   1.202   2.156   4.195
 1804OM     OM1 1804   0.949   2.448   4.608
 1805OM     OM1 1805   0.822   2.229   4.608
 1806OM     OM1 1806   0.822   2.375   4.815
 1807OM     OM1 1807   0.822   2.521   5.022
 1808OM     OM1 1808   0.949   2.302   5.022
 1809OM     OM1 1809   1.075   2.229   5.228
 1810OM     OM1 1810   0.949   2.156   5.435
 1811OM     OM1 1811   0.822   2.083   5.642
 1812OM     OM1 1812   1.075   2.375   5.435
 1813OM     OM1 1813   1.202   2.156   5.435
 1814OM     OM1 1814   0.949   2.448   5.848
 1815OM     OM1 1815   0.822   2.229   5.848
 1816OM     OM1 1816   0.949   2.741   0.062
 1817OM     OM1 1817   0.822   2.668   0.268
 1818OM     OM1 1818   0.949   2.594   0.475
 1819OM     OM1 1819   1.075   2.521   0.682
 1820OM     OM1 1820   0.822   2.814   0.475
 1821OM     OM1 1821   1.075   2.668   0.888
 1822OM     OM1 1822   0.949   2.741   1.302
 1823OM     OM1 1823   0.822   2.668   1.508
 1824OM     OM1 1824   0.949   2.594   1.715
 1825OM     OM1 1825   1.075   2.521   1.922
 1826OM     OM1 1826   0.822   2.814   1.715
 1827OM     OM1 1827   1.075   2.668   2.128
 1828OM     OM1 1828   0.949   2.741   2.542
 1829OM     OM1 1829   0.822   2.668   2.748
 1830OM     OM1 1830   0.949   2.594   2.955
 1831OM     OM1 1831   1.075   2.521   3.162
 1832OM     OM1 1832   0.822   2.814   2.955
 1833OM     OM1 1833   1.075   2.668   3.368
 1834OM     OM1 1834   0.949   2.741   3.782
 1835OM     OM1 1835   0.822   2.668   3.988
 1836OM     OM1 1836   0.949   2.594   4.195
 1837OM     OM1 1837   1.075   2.521   4.402
 1838OM     OM1 1838   0.822   2.814   4.195
 1839OM     OM1 1839   1.075   2.668   4.608
 1840OM     OM1 1840   0.949   2.741   5.022
 1841OM     OM1 1841   0.822   2.668   5.228
 1842OM     OM1 1842   0.949   2.594   5.435
 1843OM     OM1 1843   1.075   2.521   5.642
 1844OM     OM1 1844   0.822   2.814   5.435
 1845OM     OM1 1845   1.075   2.668   5.848
 1846OM     OM1 1846   1.075   2.814   6.055
 1847OM     OM1 1847   1.075   2.960   0.062
 1848OM     OM1 1848   0.949   3.179   0.062
 1849OM     OM1 1849   1.075   3.106   0.268
 1850OM     OM1 1850   0.949   3.033   0.475
 1851OM     OM1 1851   0.822   2.960   0.682
 1852OM     OM1 1852   1.075   3.252   0.475
 1853OM     OM1 1853   0.822   3.106   0.888
 1854OM     OM1 1854   0.949   2.887   0.888
 1855OM     OM1 1855   1.075   2.814   1.095
 1856OM     OM1 1856   1.075   2.960   1.302
 1857OM     OM1 1857   0.949   3.179   1.302
 1858OM     OM1 1858   1.075   3.106   1.508
 1859OM     OM1 1859   0.949   3.033   1.715
 1860OM     OM1 1860   0.822   2.960   1.922
 1861OM     OM1 1861   1.075   3.252   1.715
 1862OM     OM1 1862   0.822   3.106   2.128
 1863OM     OM1 1863   0.949   2.887   2.128
 1864OM     OM1 1864   1.075   2.814   2.335
 1865OM     OM1 1865   1.075   2.960   2.542
 1866OM     OM1 1866   0.949   3.179   2.542
 1867OM     OM1 1867   1.075   3.106   2.748
 1868OM     OM1 1868   0.949   3.033   2.955
 1869OM     OM1 1869   0.822   2.960   3.162
 1870OM     OM1 1870   1.075   3.252   2.955
 1871OM     OM1 1871   0.822   3.106   3.368
 1872OM     OM1 1872   0.949   2.887   3.368
 1873OM     OM1 1873   1.075   2.814   3.575
 1874OM     OM1 1874   1.075   2.960   3.782
 1875OM     OM1 1875   0.949   3.179   3.782
 1876OM     OM1 1876   1.075   3.106   3.988
 1877OM     OM1 1877   0.949   3.033   4.195
 1878OM     OM1 1878   0.822   2.960   4.402
 1879OM     OM1 1879   1.075   3.252   4.195
 1880OM     OM1 1880   0.822   3.106   4.608
 1881OM     OM1 1881   0.949   2.887   4.608
 1882OM     OM1 1882   1.075   2.814   4.815
 1883OM     OM1 1883   1.075   2.960   5.022
 1884OM     OM1 1884   0.949   3.179   5.022
 1885OM     OM1 1885   1.075   3.106   5.228
 1886OM     OM1 1886   0.949   3.033   5.435
 1887OM     OM1 1887   0.822   2.960   5.642
 1888OM     OM1 1888   1.075   3.252   5.435
 1889OM     OM1 1889   0.822   3.106   5.848
 1890OM     OM1 1890   0.949   2.887   5.848
 1891OM     OM1 1891   0.822   3.252   6.055
 1892OM     OM1 1892   0.822   3.398   0.062
 1893OM     OM1 1893   0.949   3.618   0.062
 1894OM     OM1 1894   0.822   3.545   0.268
 1895OM     OM1 1895   0.949   3.471   0.475
 1896OM     OM1 1896   1.075   3.398   0.682
 1897OM     OM1 1897   0.822   3.691   0.475
 1898OM     OM1 1898   0.822   3.252   1.095
 1899OM     OM1 1899   0.949   3.325   0.888
 1900OM     OM1 1900   1.075   3.545   0.888
 1901OM     OM1 1901   0.822   3.398   1.302
 1902OM     OM1 1902   0.949   3.618   1.302
 1903OM     OM1 1903   0.822   3.545   1.508
 1904OM     OM1 1904   0.949   3.471   1.715
 1905OM     OM1 1905   1.075   3.398   1.922
 1906OM     OM1 1906   0.822   3.691   1.715
 1907OM     OM1 1907   0.949   3.325   2.128
 1908OM     OM1 1908   0.822   3.252   2.335
 1909OM     OM1 1909   1.075   3.545   2.128
 1910OM     OM1 1910   0.822   3.398   2.542
 1911OM     OM1 1911   0.949   3.618   2.542
 1912OM     OM1 1912   0.822   3.545   2.748
 1913OM     OM1 1913   0.949   3.471   2.955
 1914OM     OM1 1914   1.075   3.398   3.162
 1915OM     OM1 1915   0.822   3.691   2.955
 1916OM     OM1 1916   0.949   3.325   3.368
 1917OM     OM1 1917   0.822   3.252   3.575
 1918OM     OM1 1918   1.075   3.545   3.368
 1919OM     OM1 1919   0.822   3.398   3.782
 1920OM     OM1 1920   0.949   3.618   3.782
 1921OM     OM1 1921   0.822   3.545   3.988
 1922OM     OM1 1922   0.949   3.471   4.195
 1923OM     OM1 1923   1.075   3.398   4.402
 1924OM     OM1 1924   0.822   3.691   4.195
 1925OM     OM1 1925   0.949   3.325   4.608
 1926OM     OM1 1926   0.822   3.252   4.815
 1927OM     OM1 1927   1.075   3.545   4.608
 1928OM     OM1 1928   0.822   3.398   5.022
 1929OM     OM1 1929   0.949   3.618   5.022
 1930OM     OM1 1930   0.822   3.545   5.228
 1931OM     OM1 1931   0.949   3.471   5.435
 1932OM     OM1 1932   1.075   3.398   5.642
 1933OM     OM1 1933   0.822   3.691   5.435
 1934OM     OM1 1934   0.949   3.325   5.848
 1935OM     OM1 1935   1.075   3.545   5.848
 1936OM     OM1 1936   1.075   3.691   6.055
 1937OM     OM1 1937   1.075   3.837   0.062
 1938OM     OM1 1938   0.949   4.056   0.062
 1939OM     OM1 1939   1.202   4.056   0.062
 1940OM     OM1 1940   1.075   3.983   0.268
 1941OM     OM1 1941   0.949   3.910   0.475
 1942OM     OM1 1942   0.822   3.837   0.682
 1943OM     OM1 1943   1.075   4.129   0.475
 1944OM     OM1 1944   0.822   3.983   0.888
 1945OM     OM1 1945   0.949   3.764   0.888
 1946OM     OM1 1946   1.075   3.691   1.095
 1947OM     OM1 1947   1.075   3.837   1.302
 1948OM     OM1 1948   0.949   4.056   1.302
 1949OM     OM1 1949   1.202   4.056   1.302
 1950OM     OM1 1950   1.075   3.983   1.508
 1951OM     OM1 1951   0.949   3.910   1.715
 1952OM     OM1 1952   0.822   3.837   1.922
 1953OM     OM1 1953   1.075   4.129   1.715
 1954OM     OM1 1954   0.822   3.983   2.128
 1955OM     OM1 1955   0.949   3.764   2.128
 1956OM     OM1 1956   1.075   3.691   2.335
 1957OM     OM1 1957   1.075   3.837   2.542
 1958OM     OM1 1958   0.949   4.056   2.542
 1959OM     OM1 1959   1.202   4.056   2.542
 1960OM     OM1 1960   1.075   3.983   2.748
 1961OM     OM1 1961   0.949   3.910   2.955
 1962OM     OM1 1962   0.822   3.837   3.162
 1963OM     OM1 1963   1.075   4.129   2.955
 1964OM     OM1 1964   0.822   3.983   3.368
 1965OM     OM1 1965   0.949   3.764   3.368
 1966OM     OM1 1966   1.075   3.691   3.575
 1967OM     OM1 1967   1.075   3.837   3.782
 1968OM     OM1 1968   0.949   4.056   3.782
 1969OM     OM1 1969   1.202   4.056   3.782
 1970OM     OM1 1970   1.075   3.983   3.988
 1971OM     OM1 1971   0.949   3.910   4.195
 1972OM     OM1 1972   0.822   3.837   4.402
 1973OM     OM1 1973   1.075   4.129   4.195
 1974OM     OM1 1974   0.822   3.983   4.608
 1975OM     OM1 1975   0.949   3.764   4.608
 1976OM     OM1 1976   1.075   3.691   4.815
 1977OM     OM1 1977   1.075   3.837   5.022
 1978OM     OM1 1978   0.949   4.056   5.022
 1979OM     OM1 1979   1.202   4.056   5.022
 1980OM     OM1 1980   1.075   3.983   5.228
 1981OM     OM1 1981   0.949   3.910   5.435
 1982OM     OM1 1982   0.822   3.837   5.642
 1983OM     OM1 1983   1.075   4.129   5.435
 1984OM     OM1 1984   0.822   3.983   5.848
 1985OM     OM1 1985   0.949   3.764   5.848
 1986OM     OM1 1986   0.822   4.129   6.055
 1987OM     OM1 1987   0.822   4.275   0.062
 1988OM     OM1 1988   0.949   4.348   0.475
 1989OM     OM1 1989   1.075   4.275   0.682
 1990OM     OM1 1990   1.202   4.348   0.475
 1991OM     OM1 1991   0.822   4.129   1.095
 1992OM     OM1 1992   0.949   4.202   0.888
 1993OM     OM1 1993   1.075   4.422   0.888
 1994OM     OM1 1994   1.202   4.202   0.888
 1995OM     OM1 1995   0.822   4.275   1.302
 1996OM     OM1 1996   0.949   4.348   1.715
 1997OM     OM1 1997   1.075   4.275   1.922
 1998OM     OM1 1998   1.202   4.348   1.715
 1999OM     OM1 1999   0.949   4.202   2.128
 2000OM     OM1 2000   0.822   4.129   2.335
 2001OM     OM1 2001   1.075   4.422   2.128
 2002OM     OM1 2002   1.202   4.202   2.128
 2003OM     OM1 2003   0.822   4.275   2.542
 2004OM     OM1 2004   0.949   4.348   2.955
 2005OM     OM1 2005   1.202   4.348   2.955
 2006OM     OM1 2006   1.075   4.275   3.162
 2007OM     OM1 2007   0.949   4.202   3.368
 2008OM     OM1 2008   0.822   4.129   3.575
 2009OM     OM1 2009   1.075   4.422   3.368
 2010OM     OM1 2010   1.202   4.202   3.368
 2011OM     OM1 2011   0.822   4.275   3.782
 2012OM     OM1 2012   0.949   4.348   4.195
 2013OM     OM1 2013   1.202   4.348   4.195
 2014OM     OM1 2014   1.075   4.275   4.402
 2015OM     OM1 2015   0.949   4.202   4.608
 2016OM     OM1 2016   0.822   4.129   4.815
 2017OM     OM1 2017   1.075   4.422   4.608
 2018OM     OM1 2018   1.202   4.202   4.608
 2019OM     OM1 2019   0.822   4.275   5.022
 2020OM     OM1 2020   0.949   4.348   5.435
 2021OM     OM1 2021   1.202   4.348   5.435
 2022OM     OM1 2022   1.075   4.275   5.642
 2023OM     OM1 2023   0.949   4.202   5.848
 2024OM     OM1 2024   1.075   4.422   5.848
 2025OM     OM1 2025   1.202   4.202   5.848
 2026OM     OM1 2026   0.949   4.495   0.062
 2027OM     OM1 2027   0.822   4.422   0.268
 2028OM     OM1 2028   1.075   4.568   6.055
 2029OM     OM1 2029   1.075   4.714   0.062
 2030OM     OM1 2030   1.202   4.495   0.062
 2031OM     OM1 2031   0.822   4.568   0.475
 2032OM     OM1 2032   0.949   4.787   0.475
 2033OM     OM1 2033   0.822   4.714   0.682
 2034OM     OM1 2034   0.822   4.860   0.888
 2035OM     OM1 2035   0.949   4.641   0.888
 2036OM     OM1 2036   1.075   4.568   1.095
 2037OM     OM1 2037   1.202   4.641   0.888
 2038OM     OM1 2038   0.949   4.495   1.302
 2039OM     OM1 2039   0.822   4.422   1.508
 2040OM     OM1 2040   1.075   4.714   1.302
 2041OM     OM1 2041   1.202   4.495   1.302
 2042OM     OM1 2042   0.822   4.568   1.715
 2043OM     OM1 2043   0.949   4.787   1.715
 2044OM     OM1 2044   0.822   4.714   1.922
 2045OM     OM1 2045   0.822   4.860   2.128
 2046OM     OM1 2046   0.949   4.641   2.128
 2047OM     OM1 2047   1.202   4.641   2.128
 2048OM     OM1 2048   1.075   4.568   2.335
 2049OM     OM1 2049   0.949   4.495   2.542
 2050OM     OM1 2050   0.822   4.422   2.748
 2051OM     OM1 2051   1.075   4.714   2.542
 2052OM     OM1 2052   1.202   4.495   2.542
 2053OM     OM1 2053   0.822   4.568   2.955
 2054OM     OM1 2054   0.949   4.787   2.955
 2055OM     OM1 2055   0.822   4.714   3.162
 2056OM     OM1 2056   0.822   4.860   3.368
 2057OM     OM1 2057   0.949   4.641   3.368
 2058OM     OM1 2058   1.202   4.641   3.368
 2059OM     OM1 2059   1.075   4.568   3.575
 2060OM     OM1 2060   0.949   4.495   3.782
 2061OM     OM1 2061   0.822   4.422   3.988
 2062OM     OM1 2062   1.075   4.714   3.782
 2063OM     OM1 2063   1.202   4.495   3.782
 2064OM     OM1 2064   0.822   4.568   4.195
 2065OM     OM1 2065   0.949   4.787   4.195
 2066OM     OM1 2066   0.822   4.714   4.402
 2067OM     OM1 2067   0.822   4.860   4.608
 2068OM     OM1 2068   0.949   4.641   4.608
 2069OM     OM1 2069   1.202   4.641   4.608
 2070OM     OM1 2070   1.075   4.568   4.815
 2071OM     OM1 2071   0.949   4.495   5.022
 2072OM     OM1 2072   0.822   4.422   5.228
 2073OM     OM1 2073   1.075   4.714   5.022
 2074OM     OM1 2074   1.202   4.495   5.022
 2075OM     OM1 2075   0.822   4.568   5.435
 2076OM     OM1 2076   0.949   4.787   5.435
 2077OM     OM1 2077   0.822   4.714   5.642
 2078OM     OM1 2078   0.822   4.860   5.848
 2079OM     OM1 2079   0.949   4.641   5.848
 2080OM     OM1 2080   1.202   4.641   5.848
 2081OM     OM1 2081   0.822   5.006   6.055
 2082OM     OM1 2082   0.949   4.933   0.062
 2083OM     OM1 2083   0.822   5.152   0.062
 2084OM     OM1 2084   1.075   4.860   0.268
 2085OM     OM1 2085   1.202   4.933   0.062
 2086OM     OM1 2086   1.075   5.006   0.475
 2087OM     OM1 2087   1.202   4.787   0.475
 2088OM     OM1 2088   0.949   5.225   0.475
 2089OM     OM1 2089   1.202   5.225   0.475
 2090OM     OM1 2090   1.075   5.152   0.682
 2091OM     OM1 2091   0.822   5.006   1.095
 2092OM     OM1 2092   0.949   5.079   0.888
 2093OM     OM1 2093   1.075   5.299   0.888
 2094OM     OM1 2094   1.202   5.079   0.888
 2095OM     OM1 2095   0.949   4.933   1.302
 2096OM     OM1 2096   0.822   5.152   1.302
 2097OM     OM1 2097   1.075   4.860   1.508
 2098OM     OM1 2098   1.202   4.933   1.302
 2099OM     OM1 2099   1.075   5.006   1.715
 2100OM     OM1 2100   1.202   4.787   1.715
 2101OM     OM1 2101   0.949   5.225   1.715
 2102OM     OM1 2102   1.202   5.225   1.715
 2103OM     OM1 2103   1.075   5.152   1.922
 2104OM     OM1 2104   0.949   5.079   2.128
 2105OM     OM1 2105   0.822   5.006   2.335
 2106OM     OM1 2106   1.075   5.299   2.128
 2107OM     OM1 2107   1.202   5.079   2.128
 2108OM     OM1 2108   0.949   4.933   2.542
 2109OM     OM1 2109   0.822   5.152   2.542
 2110OM     OM1 2110   1.202   4.933   2.542
 2111OM     OM1 2111   1.075   4.860   2.748
 2112OM     OM1 2112   1.075   5.006   2.955
 2113OM     OM1 2113   1.202   4.787   2.955
 2114OM     OM1 2114   0.949   5.225   2.955
 2115OM     OM1 2115   1.202   5.225   2.955
 2116OM     OM1 2116   1.075   5.152   3.162
 2117OM     OM1 2117   0.949   5.079   3.368
 2118OM     OM1 2118   0.822   5.006   3.575
 2119OM     OM1 2119   1.075   5.299   3.368
 2120OM     OM1 2120   1.202   5.079   3.368
 2121OM     OM1 2121   0.949   4.933   3.782
 2122OM     OM1 2122   0.822   5.152   3.782
 2123OM     OM1 2123   1.202   4.933   3.782
 2124OM     OM1 2124   1.075   4.860   3.988
 2125OM     OM1 2125   1.075   5.006   4.195
 2126OM     OM1 2126   1.202   4.787   4.195
 2127OM     OM1 2127   0.949   5.225   4.195
 2128OM     OM1 2128   1.202   5.225   4.195
 2129OM     OM1 2129   1.075   5.152   4.402
 2130OM     OM1 2130   0.949   5.079   4.608
 2131OM     OM1 2131   0.822   5.006   4.815
 2132OM     OM1 2132   1.075   5.299   4.608
 2133OM     OM1 2133   1.202   5.079   4.608
 2134OM     OM1 2134   0.949   4.933   5.022
 2135OM     OM1 2135   0.822   5.152   5.022
 2136OM     OM1 2136   1.202   4.933   5.022
 2137OM     OM1 2137   1.075   4.860   5.228
 2138OM     OM1 2138   1.075   5.006   5.435
 2139OM     OM1 2139   1.202   4.787   5.435
 2140OM     OM1 2140   0.949   5.225   5.435
 2141OM     OM1 2141   1.202   5.225   5.435
 2142OM     OM1 2142   1.075   5.152   5.642
 2143OM     OM1 2143   0.949   5.079   5.848
 2144OM     OM1 2144   1.075   5.299   5.848
 2145OM     OM1 2145   1.202   5.079   5.848
 2146OM     OM1 2146   0.949   5.372   0.062
 2147OM     OM1 2147   0.822   5.299   0.268
 2148OM     OM1 2148   1.075   5.445   6.055
 2149OM     OM1 2149   1.075   5.591   0.062
 2150OM     OM1 2150   1.202   5.372   0.062
 2151OM     OM1 2151   0.822   5.445   0.475
 2152OM     OM1 2152   0.949   5.664   0.475
 2153OM     OM1 2153   0.822   5.591   0.682
 2154OM     OM1 2154   0.822   5.737   0.888
 2155OM     OM1 2155   0.949   5.518   0.888
 2156OM     OM1 2156   1.075   5.445   1.095
 2157OM     OM1 2157   1.202   5.518   0.888
 2158OM     OM1 2158   0.949   5.372   1.302
 2159OM     OM1 2159   0.822   5.299   1.508
 2160OM     OM1 2160   1.075   5.591   1.302
 2161OM     OM1 2161   1.202   5.372   1.302
 2162OM     OM1 2162   0.822   5.445   1.715
 2163OM     OM1 2163   0.949   5.664   1.715
 2164OM     OM1 2164   0.822   5.591   1.922
 2165OM     OM1 2165   0.822   5.737   2.128
 2166OM     OM1 2166   0.949   5.518   2.128
 2167OM     OM1 2167   1.202   5.518   2.128
 2168OM     OM1 2168   1.075   5.445   2.335
 2169OM     OM1 2169   0.949   5.372   2.542
 2170OM     OM1 2170   0.822   5.299   2.748
 2171OM     OM1 2171   1.075   5.591   2.542
 2172OM     OM1 2172   1.202   5.372   2.542
 2173OM     OM1 2173   0.822   5.445   2.955
 2174OM     OM1 2174   0.949   5.664   2.955
 2175OM     OM1 2175   0.822   5.591   3.162
 2176OM     OM1 2176   0.822   5.737   3.368
 2177OM     OM1 2177   0.949   5.518   3.368
 2178OM     OM1 2178   1.202   5.518   3.368
 2179OM     OM1 2179   1.075   5.445   3.575
 2180OM     OM1 2180   0.949   5.372   3.782
 2181OM     OM1 2181   0.822   5.299   3.988
 2182OM     OM1 2182   1.075   5.591   3.782
 2183OM     OM1 2183   1.202   5.372   3.782
 2184OM     OM1 2184   0.822   5.445   4.195
 2185OM     OM1 2185   0.949   5.664   4.195
 2186OM     OM1 2186   0.822   5.591   4.402
 2187OM     OM1 2187   0.822   5.737   4.608
 2188OM     OM1 2188   0.949   5.518   4.608
 2189OM     OM1 2189   1.202   5.518   4.608
 2190OM     OM1 2190   1.075   5.445   4.815
 2191OM     OM1 2191   0.949   5.372   5.022
 2192OM     OM1 2192   0.822   5.299   5.228
 2193OM     OM1 2193   1.075   5.591   5.022
 2194OM     OM1 2194   1.202   5.372   5.022
 2195OM     OM1 2195   0.822   5.445   5.435
 2196OM     OM1 2196   0.949   5.664   5.435
 2197OM     OM1 2197   0.822   5.591   5.642
 2198OM     OM1 2198   0.822   5.737   5.848
 2199OM     OM1 2199   0.949   5.518   5.848
 2200OM     OM1 2200   1.202   5.518   5.848
 2201OM     OM1 2201   0.822   5.883   6.055
 2202OM     OM1 2202   0.949   5.810   0.062
 2203OM     OM1 2203   1.075   5.737   0.268
 2204OM     OM1 2204   1.202   5.810   0.062
 2205OM     OM1 2205   1.075   5.883   0.475
 2206OM     OM1 2206   1.202   5.664   0.475
 2207OM     OM1 2207   1.075   6.029   0.682
 2208OM     OM1 2208   1.202   6.102   0.475
 2209OM     OM1 2209   0.822   5.883   1.095
 2210OM     OM1 2210   0.949   5.956   0.888
 2211OM     OM1 2211   1.202   5.956   0.888
 2212OM     OM1 2212   0.949   5.810   1.302
 2213OM     OM1 2213   1.075   5.737   1.508
 2214OM     OM1 2214   1.202   5.810   1.302
 2215OM     OM1 2215   1.075   5.883   1.715
 2216OM     OM1 2216   1.202   5.664   1.715
 2217OM     OM1 2217   1.075   6.029   1.922
 2218OM     OM1 2218   1.202   6.102   1.715
 2219OM     OM1 2219   0.949   5.956   2.128
 2220OM     OM1 2220   0.822   5.883   2.335
 2221OM     OM1 2221   1.202   5.956   2.128
 2222OM     OM1 2222   0.949   5.810   2.542
 2223OM     OM1 2223   1.202   5.810   2.542
 2224OM     OM1 2224   1.075   5.737   2.748
 2225OM     OM1 2225   1.075   5.883   2.955
 2226OM     OM1 2226   1.202   5.664   2.955
 2227OM     OM1 2227   1.202   6.102   2.955
 2228OM     OM1 2228   1.075   6.029   3.162
 2229OM     OM1 2229   0.949   5.956   3.368
 2230OM     OM1 2230   0.822   5.883   3.575
 2231OM     OM1 2231   1.202   5.956   3.368
 2232OM     OM1 2232   0.949   5.810   3.782
 2233OM     OM1 2233   1.202   5.810   3.782
 2234OM     OM1 2234   1.075   5.737   3.988
 2235OM     OM1 2235   1.075   5.883   4.195
 2236OM     OM1 2236   1.202   5.664   4.195
 2237OM     OM1 2237   1.202   6.102   4.195
 2238OM     OM1 2238   1.075   6.029   4.402
 2239OM     OM1 2239   0.949   5.956   4.608
 2240OM     OM1 2240   0.822   5.883   4.815
 2241OM     OM1 2241   1.202   5.956   4.608
 2242OM     OM1 2242   0.949   5.810   5.022
 2243OM     OM1 2243   1.202   5.810   5.022
 2244OM     OM1 2244   1.075   5.737   5.228
 2245OM     OM1 2245   1.075   5.883   5.435
 2246OM     OM1 2246   1.202   5.664   5.435
 2247OM     OM1 2247   1.202   6.102   5.435
 2248OM     OM1 2248   1.075   6.029   5.642
 2249OM     OM1 2249   0.949   5.956   5.848
 2250OM     OM1 2250   1.202   5.956   5.848
 2251OM     OM1 2251   1.455   0.110   0.062
 2252OM     OM1 2252   1.328   0.036   0.268
 2253OM     OM1 2253   1.328   6.029   0.062
 2254OM     OM1 2254   1.581   0.183   6.055
 2255OM     OM1 2255   1.581   0.329   0.062
 2256OM     OM1 2256   1.708   0.110   0.062
 2257OM     OM1 2257   1.328   0.183   0.475
 2258OM     OM1 2258   1.455   6.102   0.475
 2259OM     OM1 2259   1.455   0.402   0.475
 2260OM     OM1 2260   1.328   0.329   0.682
 2261OM     OM1 2261   1.328   0.475   0.888
 2262OM     OM1 2262   1.455   0.256   0.888
 2263OM     OM1 2263   1.581   0.183   1.095
 2264OM     OM1 2264   1.581   0.036   0.888
 2265OM     OM1 2265   1.708   0.256   0.888
 2266OM     OM1 2266   1.455   0.110   1.302
 2267OM     OM1 2267   1.328   0.036   1.508
 2268OM     OM1 2268   1.328   6.029   1.302
 2269OM     OM1 2269   1.581   0.329   1.302
 2270OM     OM1 2270   1.708   0.110   1.302
 2271OM     OM1 2271   1.328   0.183   1.715
 2272OM     OM1 2272   1.455   6.102   1.715
 2273OM     OM1 2273   1.455   0.402   1.715
 2274OM     OM1 2274   1.328   0.329   1.922
 2275OM     OM1 2275   1.328   0.475   2.128
 2276OM     OM1 2276   1.455   0.256   2.128
 2277OM     OM1 2277   1.581   0.036   2.128
 2278OM     OM1 2278   1.708   0.256   2.128
 2279OM     OM1 2279   1.581   0.183   2.335
 2280OM     OM1 2280   1.455   0.110   2.542
 2281OM     OM1 2281   1.328   6.029   2.542
 2282OM     OM1 2282   1.328   0.036   2.748
 2283OM     OM1 2283   1.581   0.329   2.542
 2284OM     OM1 2284   1.708   0.110   2.542
 2285OM     OM1 2285   1.328   0.183   2.955
 2286OM     OM1 2286   1.455   6.102   2.955
 2287OM     OM1 2287   1.455   0.402   2.955
 2288OM     OM1 2288   1.328   0.329   3.162
 2289OM     OM1 2289   1.328   0.475   3.368
 2290OM     OM1 2290   1.455   0.256   3.368
 2291OM     OM1 2291   1.581   0.036   3.368
 2292OM     OM1 2292   1.708   0.256   3.368
 2293OM     OM1 2293   1.581   0.183   3.575
 2294OM     OM1 2294   1.455   0.110   3.782
 2295OM     OM1 2295   1.328   6.029   3.782
 2296OM     OM1 2296   1.328   0.036   3.988
 2297OM     OM1 2297   1.581   0.329   3.782
 2298OM     OM1 2298   1.708   0.110   3.782
 2299OM     OM1 2299   1.328   0.183   4.195
 2300OM     OM1 2300   1.455   6.102   4.195
 2301OM     OM1 2301   1.455   0.402   4.195
 2302OM     OM1 2302   1.328   0.329   4.402
 2303OM     OM1 2303   1.328   0.475   4.608
 2304OM     OM1 2304   1.455   0.256   4.608
 2305OM     OM1 2305   1.581   0.036   4.608
 2306OM     OM1 2306   1.708   0.256   4.608
 2307OM     OM1 2307   1.581   0.183   4.815
 2308OM     OM1 2308   1.455   0.110   5.022
 2309OM     OM1 2309   1.328   6.029   5.022
 2310OM     OM1 2310   1.328   0.036   5.228
 2311OM     OM1 2311   1.581   0.329   5.022
 2312OM     OM1 2312   1.708   0.110   5.022
 2313OM     OM1 2313   1.328   0.183   5.435
 2314OM     OM1 2314   1.455   6.102   5.435
 2315OM     OM1 2315   1.455   0.402   5.435
 2316OM     OM1 2316   1.328   0.329   5.642
 2317OM     OM1 2317   1.328   0.475   5.848
 2318OM     OM1 2318   1.455   0.256   5.848
 2319OM     OM1 2319   1.581   0.036   5.848
 2320OM     OM1 2320   1.708   0.256   5.848
 2321OM     OM1 2321   1.328   0.621   6.055
 2322OM     OM1 2322   1.455   0.548   0.062
 2323OM     OM1 2323   1.328   0.767   0.062
 2324OM     OM1 2324   1.581   0.475   0.268
 2325OM     OM1 2325   1.708   0.548   0.062
 2326OM     OM1 2326   1.581   0.621   0.475
 2327OM     OM1 2327   1.708   0.402   0.475
 2328OM     OM1 2328   1.455   0.840   0.475
 2329OM     OM1 2329   1.708   0.840   0.475
 2330OM     OM1 2330   1.581   0.767   0.682
 2331OM     OM1 2331   1.328   0.621   1.095
 2332OM     OM1 2332   1.455   0.694   0.888
 2333OM     OM1 2333   1.581   0.913   0.888
 2334OM     OM1 2334   1.708   0.694   0.888
 2335OM     OM1 2335   1.455   0.548   1.302
 2336OM     OM1 2336   1.328   0.767   1.302
 2337OM     OM1 2337   1.581   0.475   1.508
 2338OM     OM1 2338   1.708   0.548   1.302
 2339OM     OM1 2339   1.581   0.621   1.715
 2340OM     OM1 2340   1.708   0.402   1.715
 2341OM     OM1 2341   1.455   0.840   1.715
 2342OM     OM1 2342   1.708   0.840   1.715
 2343OM     OM1 2343   1.581   0.767   1.922
 2344OM     OM1 2344   1.455   0.694   2.128
 2345OM     OM1 2345   1.328   0.621   2.335
 2346OM     OM1 2346   1.581   0.913   2.128
 2347OM     OM1 2347   1.708   0.694   2.128
 2348OM     OM1 2348   1.455   0.548   2.542
 2349OM     OM1 2349   1.328   0.767   2.542
 2350OM     OM1 2350   1.708   0.548   2.542
 2351OM     OM1 2351   1.581   0.475   2.748
 2352OM     OM1 2352   1.581   0.621   2.955
 2353OM     OM1 2353   1.708   0.402   2.955
 2354OM     OM1 2354   1.455   0.840   2.955
 2355OM     OM1 2355   1.708   0.840   2.955
 2356OM     OM1 2356   1.581   0.767   3.162
 2357OM     OM1 2357   1.455   0.694   3.368
 2358OM     OM1 2358   1.328   0.621   3.575
 2359OM     OM1 2359   1.581   0.913   3.368
 2360OM     OM1 2360   1.708   0.694   3.368
 2361OM     OM1 2361   1.455   0.548   3.782
 2362OM     OM1 2362   1.328   0.767   3.782
 2363OM     OM1 2363   1.708   0.548   3.782
 2364OM     OM1 2364   1.581   0.475   3.988
 2365OM     OM1 2365   1.581   0.621   4.195
 2366OM     OM1 2366   1.708   0.402   4.195
 2367OM     OM1 2367   1.455   0.840   4.195
 2368OM     OM1 2368   1.708   0.840   4.195
 2369OM     OM1 2369   1.581   0.767   4.402
 2370OM     OM1 2370   1.455   0.694   4.608
 2371OM     OM1 2371   1.328   0.621   4.815
 2372OM     OM1 2372   1.581   0.913   4.608
 2373OM     OM1 2373   1.708   0.694   4.608
 2374OM     OM1 2374   1.455   0.548   5.022
 2375OM     OM1 2375   1.328   0.767   5.022
 2376OM     OM1 2376   1.708   0.548   5.022
 2377OM     OM1 2377   1.581   0.475   5.228
 2378OM     OM1 2378   1.581   0.621   5.435
 2379OM     OM1 2379   1.708   0.402   5.435
 2380OM     OM1 2380   1.455   0.840   5.435
 2381OM     OM1 2381   1.708   0.840   5.435
 2382OM     OM1 2382   1.581   0.767   5.642
 2383OM     OM1 2383   1.455   0.694   5.848
 2384OM     OM1 2384   1.581   0.913   5.848
 2385OM     OM1 2385   1.708   0.694   5.848
 2386OM     OM1 2386   1.455   0.987   0.062
 2387OM     OM1 2387   1.328   0.913   0.268
 2388OM     OM1 2388   1.581   1.060   6.055
 2389OM     OM1 2389   1.581   1.206   0.062
 2390OM     OM1 2390   1.708   0.987   0.062
 2391OM     OM1 2391   1.328   1.060   0.475
 2392OM     OM1 2392   1.455   1.133   0.888
 2393OM     OM1 2393   1.581   1.060   1.095
 2394OM     OM1 2394   1.708   1.133   0.888
 2395OM     OM1 2395   1.455   0.987   1.302
 2396OM     OM1 2396   1.328   0.913   1.508
 2397OM     OM1 2397   1.581   1.206   1.302
 2398OM     OM1 2398   1.708   0.987   1.302
 2399OM     OM1 2399   1.328   1.060   1.715
 2400OM     OM1 2400   1.455   1.133   2.128
 2401OM     OM1 2401   1.708   1.133   2.128
 2402OM     OM1 2402   1.581   1.060   2.335
 2403OM     OM1 2403   1.455   0.987   2.542
 2404OM     OM1 2404   1.328   0.913   2.748
 2405OM     OM1 2405   1.581   1.206   2.542
 2406OM     OM1 2406   1.708   0.987   2.542
 2407OM     OM1 2407   1.328   1.060   2.955
 2408OM     OM1 2408   1.455   1.133   3.368
 2409OM     OM1 2409   1.708   1.133   3.368
 2410OM     OM1 2410   1.581   1.060   3.575
 2411OM     OM1 2411   1.455   0.987   3.782
 2412OM     OM1 2412   1.328   0.913   3.988
 2413OM     OM1 2413   1.581   1.206   3.782
 2414OM     OM1 2414   1.708   0.987   3.782
 2415OM     OM1 2415   1.328   1.060   4.195
 2416OM     OM1 2416   1.455   1.133   4.608
 2417OM     OM1 2417   1.708   1.133   4.608
 2418OM     OM1 2418   1.581   1.060   4.815
 2419OM     OM1 2419   1.455   0.987   5.022
 2420OM     OM1 2420   1.328   0.913   5.228
 2421OM     OM1 2421   1.581   1.206   5.022
 2422OM     OM1 2422   1.708   0.987   5.022
 2423OM     OM1 2423   1.328   1.060   5.435
 2424OM     OM1 2424   1.455   1.133   5.848
 2425OM     OM1 2425   1.708   1.133   5.848
 2426OM     OM1 2426   1.328   1.498   6.055
 2427OM     OM1 2427   1.328   1.644   0.062
 2428OM     OM1 2428   1.455   1.425   0.062
 2429OM     OM1 2429   1.581   1.352   0.268
 2430OM     OM1 2430   1.708   1.425   0.062
 2431OM     OM1 2431   1.455   1.279   0.475
 2432OM     OM1 2432   1.328   1.206   0.682
 2433OM     OM1 2433   1.581   1.498   0.475
 2434OM     OM1 2434   1.708   1.279   0.475
 2435OM     OM1 2435   1.328   1.498   1.095
 2436OM     OM1 2436   1.328   1.352   0.888
 2437OM     OM1 2437   1.455   1.571   0.888
 2438OM     OM1 2438   1.328   1.644   1.302
 2439OM     OM1 2439   1.455   1.425   1.302
 2440OM     OM1 2440   1.581   1.352   1.508
 2441OM     OM1 2441   1.708   1.425   1.302
 2442OM     OM1 2442   1.455   1.279   1.715
 2443OM     OM1 2443   1.328   1.206   1.922
 2444OM     OM1 2444   1.581   1.498   1.715
 2445OM     OM1 2445   1.708   1.279   1.715
 2446OM     OM1 2446   1.328   1.352   2.128
 2447OM     OM1 2447   1.455   1.571   2.128
 2448OM     OM1 2448   1.328   1.498   2.335
 2449OM     OM1 2449   1.328   1.644   2.542
 2450OM     OM1 2450   1.455   1.425   2.542
 2451OM     OM1 2451   1.708   1.425   2.542
 2452OM     OM1 2452   1.581   1.352   2.748
 2453OM     OM1 2453   1.455   1.279   2.955
 2454OM     OM1 2454   1.328   1.206   3.162
 2455OM     OM1 2455   1.581   1.498   2.955
 2456OM     OM1 2456   1.708   1.279   2.955
 2457OM     OM1 2457   1.328   1.352   3.368
 2458OM     OM1 2458   1.455   1.571   3.368
 2459OM     OM1 2459   1.328   1.498   3.575
 2460OM     OM1 2460   1.328   1.644   3.782
 2461OM     OM1 2461   1.455   1.425   3.782
 2462OM     OM1 2462   1.708   1.425   3.782
 2463OM     OM1 2463   1.581   1.352   3.988
 2464OM     OM1 2464   1.455   1.279   4.195
 2465OM     OM1 2465   1.328   1.206   4.402
 2466OM     OM1 2466   1.581   1.498   4.195
 2467OM     OM1 2467   1.708   1.279   4.195
 2468OM     OM1 2468   1.328   1.352   4.608
 2469OM     OM1 2469   1.455   1.571   4.608
 2470OM     OM1 2470   1.328   1.498   4.815
 2471OM     OM1 2471   1.328   1.644   5.022
 2472OM     OM1 2472   1.455   1.425   5.022
 2473OM     OM1 2473   1.708   1.425   5.022
 2474OM     OM1 2474   1.581   1.352   5.228
 2475OM     OM1 2475   1.455   1.279   5.435
 2476OM     OM1 2476   1.328   1.206   5.642
 2477OM     OM1 2477   1.581   1.498   5.435
 2478OM     OM1 2478   1.708   1.279   5.435
 2479OM     OM1 2479   1.328   1.352   5.848
 2480OM     OM1 2480   1.455   1.571   5.848
 2481OM     OM1 2481   1.328   1.791   0.268
 2482OM     OM1 2482   1.455   1.717   0.475
 2483OM     OM1 2483   1.581   1.644   0.682
 2484OM     OM1 2484   1.328   1.937   0.475
 2485OM     OM1 2485   1.708   1.571   0.888
 2486OM     OM1 2486   1.328   1.791   1.508
 2487OM     OM1 2487   1.455   1.717   1.715
 2488OM     OM1 2488   1.581   1.644   1.922
 2489OM     OM1 2489   1.328   1.937   1.715
 2490OM     OM1 2490   1.708   1.571   2.128
 2491OM     OM1 2491   1.328   1.791   2.748
 2492OM     OM1 2492   1.455   1.717   2.955
 2493OM     OM1 2493   1.581   1.644   3.162
 2494OM     OM1 2494   1.328   1.937   2.955
 2495OM     OM1 2495   1.708   1.571   3.368
 2496OM     OM1 2496   1.328   1.791   3.988
 2497OM     OM1 2497   1.455   1.717   4.195
 2498OM     OM1 2498   1.581   1.644   4.402
 2499OM     OM1 2499   1.328   1.937   4.195
 2500OM     OM1 2500   1.708   1.571   4.608
 2501OM     OM1 2501   1.328   1.791   5.228
 2502OM     OM1 2502   1.455   1.717   5.435
 2503OM     OM1 2503   1.581   1.644   5.642
 2504OM     OM1 2504   1.328   1.937   5.435
 2505OM     OM1 2505   1.708   1.571   5.848
 2506OM     OM1 2506   1.328   2.083   0.682
 2507OM     OM1 2507   1.328   2.083   1.922
 2508OM     OM1 2508   1.328   2.083   3.162
 2509OM     OM1 2509   1.328   2.083   4.402
 2510OM     OM1 2510   1.328   2.083   5.642
 2511OM     OM1 2511   1.328   4.129   6.055
 2512OM     OM1 2512   1.328   4.275   0.062
 2513OM     OM1 2513   1.328   4.129   1.095
 2514OM     OM1 2514   1.328   4.275   1.302
 2515OM     OM1 2515   1.328   4.129   2.335
 2516OM     OM1 2516   1.328   4.275   2.542
 2517OM     OM1 2517   1.328   4.129   3.575
 2518OM     OM1 2518   1.328   4.275   3.782
 2519OM     OM1 2519   1.328   4.129   4.815
 2520OM     OM1 2520   1.328   4.275   5.022
 2521OM     OM1 2521   1.455   4.495   0.062
 2522OM     OM1 2522   1.328   4.422   0.268
 2523OM     OM1 2523   1.581   4.568   6.055
 2524OM     OM1 2524   1.581   4.714   0.062
 2525OM     OM1 2525   1.328   4.568   0.475
 2526OM     OM1 2526   1.455   4.787   0.475
 2527OM     OM1 2527   1.328   4.714   0.682
 2528OM     OM1 2528   1.328   4.860   0.888
 2529OM     OM1 2529   1.455   4.641   0.888
 2530OM     OM1 2530   1.581   4.568   1.095
 2531OM     OM1 2531   1.708   4.641   0.888
 2532OM     OM1 2532   1.455   4.495   1.302
 2533OM     OM1 2533   1.328   4.422   1.508
 2534OM     OM1 2534   1.581   4.714   1.302
 2535OM     OM1 2535   1.328   4.568   1.715
 2536OM     OM1 2536   1.455   4.787   1.715
 2537OM     OM1 2537   1.328   4.714   1.922
 2538OM     OM1 2538   1.328   4.860   2.128
 2539OM     OM1 2539   1.455   4.641   2.128
 2540OM     OM1 2540   1.708   4.641   2.128
 2541OM     OM1 2541   1.581   4.568   2.335
 2542OM     OM1 2542   1.455   4.495   2.542
 2543OM     OM1 2543   1.328   4.422   2.748
 2544OM     OM1 2544   1.581   4.714   2.542
 2545OM     OM1 2545   1.328   4.568   2.955
 2546OM     OM1 2546   1.455   4.787   2.955
 2547OM     OM1 2547   1.328   4.714   3.162
 2548OM     OM1 2548   1.328   4.860   3.368
 2549OM     OM1 2549   1.455   4.641   3.368
 2550OM     OM1 2550   1.708   4.641   3.368
 2551OM     OM1 2551   1.581   4.568   3.575
 2552OM     OM1 2552   1.455   4.495   3.782
 2553OM     OM1 2553   1.328   4.422   3.988
 2554OM     OM1 2554   1.581   4.714   3.782
 2555OM     OM1 2555   1.328   4.568   4.195
 2556OM     OM1 2556   1.455   4.787   4.195
 2557OM     OM1 2557   1.328   4.714   4.402
 2558OM     OM1 2558   1.328   4.860   4.608
 2559OM     OM1 2559   1.455   4.641   4.608
 2560OM     OM1 2560   1.708   4.641   4.608
 2561OM     OM1 2561   1.581   4.568   4.815
 2562OM     OM1 2562   1.455   4.495   5.022
 2563OM     OM1 2563   1.328   4.422   5.228
 2564OM     OM1 2564   1.581   4.714   5.022
 2565OM     OM1 2565   1.328   4.568   5.435
 2566OM     OM1 2566   1.455   4.787   5.435
 2567OM     OM1 2567   1.328   4.714   5.642
 2568OM     OM1 2568   1.328   4.860   5.848
 2569OM     OM1 2569   1.455   4.641   5.848
 2570OM     OM1 2570   1.708   4.641   5.848
 2571OM     OM1 2571   1.328   5.006   6.055
 2572OM     OM1 2572   1.455   4.933   0.062
 2573OM     OM1 2573   1.328   5.152   0.062
 2574OM     OM1 2574   1.581   4.860   0.268
 2575OM     OM1 2575   1.708   4.933   0.062
 2576OM     OM1 2576   1.581   5.006   0.475
 2577OM     OM1 2577   1.708   4.787   0.475
 2578OM     OM1 2578   1.455   5.225   0.475
 2579OM     OM1 2579   1.708   5.225   0.475
 2580OM     OM1 2580   1.581   5.152   0.682
 2581OM     OM1 2581   1.328   5.006   1.095
 2582OM     OM1 2582   1.455   5.079   0.888
 2583OM     OM1 2583   1.581   5.299   0.888
 2584OM     OM1 2584   1.708   5.079   0.888
 2585OM     OM1 2585   1.455   4.933   1.302
 2586OM     OM1 2586   1.328   5.152   1.302
 2587OM     OM1 2587   1.581   4.860   1.508
 2588OM     OM1 2588   1.708   4.933   1.302
 2589OM     OM1 2589   1.581   5.006   1.715
 2590OM     OM1 2590   1.708   4.787   1.715
 2591OM     OM1 2591   1.455   5.225   1.715
 2592OM     OM1 2592   1.708   5.225   1.715
 2593OM     OM1 2593   1.581   5.152   1.922
 2594OM     OM1 2594   1.455   5.079   2.128
 2595OM     OM1 2595   1.328   5.006   2.335
 2596OM     OM1 2596   1.581   5.299   2.128
 2597OM     OM1 2597   1.708   5.079   2.128
 2598OM     OM1 2598   1.455   4.933   2.542
 2599OM     OM1 2599   1.328   5.152   2.542
 2600OM     OM1 2600   1.708   4.933   2.542
 2601OM     OM1 2601   1.581   4.860   2.748
 2602OM     OM1 2602   1.581   5.006   2.955
 2603OM     OM1 2603   1.708   4.787   2.955
 2604OM     OM1 2604   1.455   5.225   2.955
 2605OM     OM1 2605   1.708   5.225   2.955
 2606OM     OM1 2606   1.581   5.152   3.162
 2607OM     OM1 2607   1.455   5.079   3.368
 2608OM     OM1 2608   1.328   5.006   3.575
 2609OM     OM1 2609   1.581   5.299   3.368
 2610OM     OM1 2610   1.708   5.079   3.368
 2611OM     OM1 2611   1.455   4.933   3.782
 2612OM     OM1 2612   1.328   5.152   3.782
 2613OM     OM1 2613   1.708   4.933   3.782
 2614OM     OM1 2614   1.581   4.860   3.988
 2615OM     OM1 2615   1.581   5.006   4.195
 2616OM     OM1 2616   1.708   4.787   4.195
 2617OM     OM1 2617   1.455   5.225   4.195
 2618OM     OM1 2618   1.708   5.225   4.195
 2619OM     OM1 2619   1.581   5.152   4.402
 2620OM     OM1 2620   1.455   5.079   4.608
 2621OM     OM1 2621   1.328   5.006   4.815
 2622OM     OM1 2622   1.581   5.299   4.608
 2623OM     OM1 2623   1.708   5.079   4.608
 2624OM     OM1 2624   1.455   4.933   5.022
 2625OM     OM1 2625   1.328   5.152   5.022
 2626OM     OM1 2626   1.708   4.933   5.022
 2627OM     OM1 2627   1.581   4.860   5.228
 2628OM     OM1 2628   1.581   5.006   5.435
 2629OM     OM1 2629   1.708   4.787   5.435
 2630OM     OM1 2630   1.455   5.225   5.435
 2631OM     OM1 2631   1.708   5.225   5.435
 2632OM     OM1 2632   1.581   5.152   5.642
 2633OM     OM1 2633   1.455   5.079   5.848
 2634OM     OM1 2634   1.581   5.299   5.848
 2635OM     OM1 2635   1.708   5.079   5.848
 2636OM     OM1 2636   1.455   5.372   0.062
 2637OM     OM1 2637   1.328   5.299   0.268
 2638OM     OM1 2638   1.581   5.445   6.055
 2639OM     OM1 2639   1.581   5.591   0.062
 2640OM     OM1 2640   1.708   5.372   0.062
 2641OM     OM1 2641   1.328   5.445   0.475
 2642OM     OM1 2642   1.455   5.664   0.475
 2643OM     OM1 2643   1.328   5.591   0.682
 2644OM     OM1 2644   1.328   5.737   0.888
 2645OM     OM1 2645   1.455   5.518   0.888
 2646OM     OM1 2646   1.581   5.445   1.095
 2647OM     OM1 2647   1.708   5.518   0.888
 2648OM     OM1 2648   1.455   5.372   1.302
 2649OM     OM1 2649   1.328   5.299   1.508
 2650OM     OM1 2650   1.581   5.591   1.302
 2651OM     OM1 2651   1.708   5.372   1.302
 2652OM     OM1 2652   1.328   5.445   1.715
 2653OM     OM1 2653   1.455   5.664   1.715
 2654OM     OM1 2654   1.328   5.591   1.922
 2655OM     OM1 2655   1.328   5.737   2.128
 2656OM     OM1 2656   1.455   5.518   2.128
 2657OM     OM1 2657   1.708   5.518   2.128
 2658OM     OM1 2658   1.581   5.445   2.335
 2659OM     OM1 2659   1.455   5.372   2.542
 2660OM     OM1 2660   1.328   5.299   2.748
 2661OM     OM1 2661   1.581   5.591   2.542
 2662OM     OM1 2662   1.708   5.372   2.542
 2663OM     OM1 2663   1.328   5.445   2.955
 2664OM     OM1 2664   1.455   5.664   2.955
 2665OM     OM1 2665   1.328   5.591   3.162
 2666OM     OM1 2666   1.328   5.737   3.368
 2667OM     OM1 2667   1.455   5.518   3.368
 2668OM     OM1 2668   1.708   5.518   3.368
 2669OM     OM1 2669   1.581   5.445   3.575
 2670OM     OM1 2670   1.455   5.372   3.782
 2671OM     OM1 2671   1.328   5.299   3.988
 2672OM     OM1 2672   1.581   5.591   3.782
 2673OM     OM1 2673   1.708   5.372   3.782
 2674OM     OM1 2674   1.328   5.445   4.195
 2675OM     OM1 2675   1.455   5.664   4.195
 2676OM     OM1 2676   1.328   5.591   4.402
 2677OM     OM1 2677   1.328   5.737   4.608
 2678OM     OM1 2678   1.455   5.518   4.608
 2679OM     OM1 2679   1.708   5.518   4.608
 2680OM     OM1 2680   1.581   5.445   4.815
 2681OM     OM1 2681   1.455   5.372   5.022
 2682OM     OM1 2682   1.328   5.299   5.228
 2683OM     OM1 2683   1.581   5.591   5.022
 2684OM     OM1 2684   1.708   5.372   5.022
 2685OM     OM1 2685   1.328   5.445   5.435
 2686OM     OM1 2686   1.455   5.664   5.435
 2687OM     OM1 2687   1.328   5.591   5.642
 2688OM     OM1 2688   1.328   5.737   5.848
 2689OM     OM1 2689   1.455   5.518   5.848
 2690OM     OM1 2690   1.708   5.518   5.848
 2691OM     OM1 2691   1.328   5.883   6.055
 2692OM     OM1 2692   1.455   5.810   0.062
 2693OM     OM1 2693   1.581   5.737   0.268
 2694OM     OM1 2694   1.708   5.810   0.062
 2695OM     OM1 2695   1.581   5.883   0.475
 2696OM     OM1 2696   1.708   5.664   0.475
 2697OM     OM1 2697   1.581   6.029   0.682
 2698OM     OM1 2698   1.708   6.102   0.475
 2699OM     OM1 2699   1.328   5.883   1.095
 2700OM     OM1 2700   1.455   5.956   0.888
 2701OM     OM1 2701   1.708   5.956   0.888
 2702OM     OM1 2702   1.455   5.810   1.302
 2703OM     OM1 2703   1.581   5.737   1.508
 2704OM     OM1 2704   1.708   5.810   1.302
 2705OM     OM1 2705   1.581   5.883   1.715
 2706OM     OM1 2706   1.708   5.664   1.715
 2707OM     OM1 2707   1.581   6.029   1.922
 2708OM     OM1 2708   1.708   6.102   1.715
 2709OM     OM1 2709   1.455   5.956   2.128
 2710OM     OM1 2710   1.328   5.883   2.335
 2711OM     OM1 2711   1.708   5.956   2.128
 2712OM     OM1 2712   1.455   5.810   2.542
 2713OM     OM1 2713   1.708   5.810   2.542
 2714OM     OM1 2714   1.581   5.737   2.748
 2715OM     OM1 2715   1.581   5.883   2.955
 2716OM     OM1 2716   1.708   5.664   2.955
 2717OM     OM1 2717   1.708   6.102   2.955
 2718OM     OM1 2718   1.581   6.029   3.162
 2719OM     OM1 2719   1.455   5.956   3.368
 2720OM     OM1 2720   1.328   5.883   3.575
 2721OM     OM1 2721   1.708   5.956   3.368
 2722OM     OM1 2722   1.455   5.810   3.782
 2723OM     OM1 2723   1.708   5.810   3.782
 2724OM     OM1 2724   1.581   5.737   3.988
 2725OM     OM1 2725   1.581   5.883   4.195
 2726OM     OM1 2726   1.708   5.664   4.195
 2727OM     OM1 2727   1.708   6.102   4.195
 2728OM     OM1 2728   1.581   6.029   4.402
 2729OM     OM1 2729   1.455   5.956   4.608
 2730OM     OM1 2730   1.328   5.883   4.815
 2731OM     OM1 2731   1.708   5.956   4.608
 2732OM     OM1 2732   1.455   5.810   5.022
 2733OM     OM1 2733   1.708   5.810   5.022
 2734OM     OM1 2734   1.581   5.737   5.228
 2735OM     OM1 2735   1.581   5.883   5.435
 2736OM     OM1 2736   1.708   5.664   5.435
 2737OM     OM1 2737   1.708   6.102   5.435
 2738OM     OM1 2738   1.581   6.029   5.642
 2739OM     OM1 2739   1.455   5.956   5.848
 2740OM     OM1 2740   1.708   5.956   5.848
 2741OM     OM1 2741   1.961   0.110   0.062
 2742OM     OM1 2742   1.834   0.036   0.268
 2743OM     OM1 2743   1.834   6.029   0.062
 2744OM     OM1 2744   1.834   0.183   0.475
 2745OM     OM1 2745   1.961   6.102   0.475
 2746OM     OM1 2746   1.961   0.402   0.475
 2747OM     OM1 2747   1.834   0.329   0.682
 2748OM     OM1 2748   1.834   0.475   0.888
 2749OM     OM1 2749   1.961   0.256   0.888
 2750OM     OM1 2750   1.961   0.110   1.302
 2751OM     OM1 2751   1.834   0.036   1.508
 2752OM     OM1 2752   1.834   6.029   1.302
 2753OM     OM1 2753   1.834   0.183   1.715
 2754OM     OM1 2754   1.961   6.102   1.715
 2755OM     OM1 2755   1.961   0.402   1.715
 2756OM     OM1 2756   1.834   0.329   1.922
 2757OM     OM1 2757   1.834   0.475   2.128
 2758OM     OM1 2758   1.961   0.256   2.128
 2759OM     OM1 2759   1.961   0.110   2.542
 2760OM     OM1 2760   1.834   6.029   2.542
 2761OM     OM1 2761   1.834   0.036   2.748
 2762OM     OM1 2762   1.834   0.183   2.955
 2763OM     OM1 2763   1.961   6.102   2.955
 2764OM     OM1 2764   1.961   0.402   2.955
 2765OM     OM1 2765   1.834   0.329   3.162
 2766OM     OM1 2766   1.834   0.475   3.368
 2767OM     OM1 2767   1.961   0.256   3.368
 2768OM     OM1 2768   1.961   0.110   3.782
 2769OM     OM1 2769   1.834   6.029   3.782
 2770OM     OM1 2770   1.834   0.036   3.988
 2771OM     OM1 2771   1.834   0.183   4.195
 2772OM     OM1 2772   1.961   6.102   4.195
 2773OM     OM1 2773   1.961   0.402   4.195
 2774OM     OM1 2774   1.834   0.329   4.402
 2775OM     OM1 2775   1.834   0.475   4.608
 2776OM     OM1 2776   1.961   0.256   4.608
 2777OM     OM1 2777   1.961   0.110   5.022
 2778OM     OM1 2778   1.834   6.029   5.022
 2779OM     OM1 2779   1.834   0.036   5.228
 2780OM     OM1 2780   1.834   0.183   5.435
 2781OM     OM1 2781   1.961   6.102   5.435
 2782OM     OM1 2782   1.961   0.402   5.435
 2783OM     OM1 2783   1.834   0.329   5.642
 2784OM     OM1 2784   1.834   0.475   5.848
 2785OM     OM1 2785   1.961   0.256   5.848
 2786OM     OM1 2786   1.834   0.621   6.055
 2787OM     OM1 2787   1.961   0.548   0.062
 2788OM     OM1 2788   1.834   0.767   0.062
 2789OM     OM1 2789   1.834   0.621   1.095
 2790OM     OM1 2790   1.961   0.694   0.888
 2791OM     OM1 2791   1.961   0.548   1.302
 2792OM     OM1 2792   1.834   0.767   1.302
 2793OM     OM1 2793   1.961   0.694   2.128
 2794OM     OM1 2794   1.834   0.621   2.335
 2795OM     OM1 2795   1.961   0.548   2.542
 2796OM     OM1 2796   1.834   0.767   2.542
 2797OM     OM1 2797   1.961   0.694   3.368
 2798OM     OM1 2798   1.834   0.621   3.575
 2799OM     OM1 2799   1.961   0.548   3.782
 2800OM     OM1 2800   1.834   0.767   3.782
 2801OM     OM1 2801   1.961   0.694   4.608
 2802OM     OM1 2802   1.834   0.621   4.815
 2803OM     OM1 2803   1.961   0.548   5.022
 2804OM     OM1 2804   1.834   0.767   5.022
 2805OM     OM1 2805   1.961   0.694   5.848
 2806OM     OM1 2806   1.961   0.987   0.062
 2807OM     OM1 2807   1.834   0.913   0.268
 2808OM     OM1 2808   1.961   0.840   0.475
 2809OM     OM1 2809   1.834   1.060   0.475
 2810OM     OM1 2810   1.961   0.987   1.302
 2811OM     OM1 2811   1.834   0.913   1.508
 2812OM     OM1 2812   1.961   0.840   1.715
 2813OM     OM1 2813   1.834   1.060   1.715
 2814OM     OM1 2814   1.961   0.987   2.542
 2815OM     OM1 2815   1.834   0.913   2.748
 2816OM     OM1 2816   1.961   0.840   2.955
 2817OM     OM1 2817   1.834   1.060   2.955
 2818OM     OM1 2818   1.961   0.987   3.782
 2819OM     OM1 2819   1.834   0.913   3.988
 2820OM     OM1 2820   1.961   0.840   4.195
 2821OM     OM1 2821   1.834   1.060   4.195
 2822OM     OM1 2822   1.961   0.987   5.022
 2823OM     OM1 2823   1.834   0.913   5.228
 2824OM     OM1 2824   1.961   0.840   5.435
 2825OM     OM1 2825   1.834   1.060   5.435
 2826OM     OM1 2826   1.834   1.498   6.055
 2827OM     OM1 2827   1.961   1.425   0.062
 2828OM     OM1 2828   1.961   1.279   0.475
 2829OM     OM1 2829   1.834   1.206   0.682
 2830OM     OM1 2830   1.834   1.498   1.095
 2831OM     OM1 2831   1.834   1.352   0.888
 2832OM     OM1 2832   1.961   1.133   0.888
 2833OM     OM1 2833   1.961   1.425   1.302
 2834OM     OM1 2834   1.961   1.279   1.715
 2835OM     OM1 2835   1.834   1.206   1.922
 2836OM     OM1 2836   1.834   1.352   2.128
 2837OM     OM1 2837   1.834   1.498   2.335
 2838OM     OM1 2838   1.961   1.133   2.128
 2839OM     OM1 2839   1.961   1.425   2.542
 2840OM     OM1 2840   1.961   1.279   2.955
 2841OM     OM1 2841   1.834   1.206   3.162
 2842OM     OM1 2842   1.834   1.352   3.368
 2843OM     OM1 2843   1.834   1.498   3.575
 2844OM     OM1 2844   1.961   1.133   3.368
 2845OM     OM1 2845   1.961   1.425   3.782
 2846OM     OM1 2846   1.961   1.279   4.195
 2847OM     OM1 2847   1.834   1.206   4.402
 2848OM     OM1 2848   1.834   1.352   4.608
 2849OM     OM1 2849   1.834   1.498   4.815
 2850OM     OM1 2850   1.961   1.133   4.608
 2851OM     OM1 2851   1.961   1.425   5.022
 2852OM     OM1 2852   1.961   1.279   5.435
 2853OM     OM1 2853   1.834   1.206   5.642
 2854OM     OM1 2854   1.834   1.352   5.848
 2855OM     OM1 2855   1.961   1.133   5.848
 2856OM     OM1 2856   1.961   4.787   0.475
 2857OM     OM1 2857   1.834   4.714   0.682
 2858OM     OM1 2858   1.834   4.860   0.888
 2859OM     OM1 2859   1.961   4.787   1.715
 2860OM     OM1 2860   1.834   4.714   1.922
 2861OM     OM1 2861   1.834   4.860   2.128
 2862OM     OM1 2862   1.961   4.787   2.955
 2863OM     OM1 2863   1.834   4.714   3.162
 2864OM     OM1 2864   1.834   4.860   3.368
 2865OM     OM1 2865   1.961   4.787   4.195
 2866OM     OM1 2866   1.834   4.714   4.402
 2867OM     OM1 2867   1.834   4.860   4.608
 2868OM     OM1 2868   1.961   4.787   5.435
 2869OM     OM1 2869   1.834   4.714   5.642
 2870OM     OM1 2870   1.834   4.860   5.848
 2871OM     OM1 2871   1.834   5.006   6.055
 2872OM     OM1 2872   1.961   4.933   0.062
 2873OM     OM1 2873   1.834   5.152   0.062
 2874OM     OM1 2874   1.834   5.006   1.095
 2875OM     OM1 2875   1.961   5.079   0.888
 2876OM     OM1 2876   1.961   4.933   1.302
 2877OM     OM1 2877   1.834   5.152   1.302
 2878OM     OM1 2878   1.961   5.079   2.128
 2879OM     OM1 2879   1.834   5.006   2.335
 2880OM     OM1 2880   1.961   4.933   2.542
 2881OM     OM1 2881   1.834   5.152   2.542
 2882OM     OM1 2882   1.961   5.079   3.368
 2883OM     OM1 2883   1.834   5.006   3.575
 2884OM     OM1 2884   1.961   4.933   3.782
 2885OM     OM1 2885   1.834   5.152   3.782
 2886OM     OM1 2886   1.961   5.079   4.608
 2887OM     OM1 2887   1.834   5.006   4.815
 2888OM     OM1 2888   1.961   4.933   5.022
 2889OM     OM1 2889   1.834   5.152   5.022
 2890OM     OM1 2890   1.961   5.079   5.848
 2891OM     OM1 2891   1.961   5.372   0.062
 2892OM     OM1 2892   1.834   5.299   0.268
 2893OM     OM1 2893   1.961   5.225   0.475
 2894OM     OM1 2894   1.834   5.445   0.475
 2895OM     OM1 2895   1.961   5.664   0.475
 2896OM     OM1 2896   1.834   5.591   0.682
 2897OM     OM1 2897   1.834   5.737   0.888
 2898OM     OM1 2898   1.961   5.518   0.888
 2899OM     OM1 2899   1.961   5.372   1.302
 2900OM     OM1 2900   1.834   5.299   1.508
 2901OM     OM1 2901   1.961   5.225   1.715
 2902OM     OM1 2902   1.834   5.445   1.715
 2903OM     OM1 2903   1.961   5.664   1.715
 2904OM     OM1 2904   1.834   5.591   1.922
 2905OM     OM1 2905   1.834   5.737   2.128
 2906OM     OM1 2906   1.961   5.518   2.128
 2907OM     OM1 2907   1.961   5.372   2.542
 2908OM     OM1 2908   1.834   5.299   2.748
 2909OM     OM1 2909   1.961   5.225   2.955
 2910OM     OM1 2910   1.834   5.445   2.955
 2911OM     OM1 2911   1.961   5.664   2.955
 2912OM     OM1 2912   1.834   5.591   3.162
 2913OM     OM1 2913   1.834   5.737   3.368
 2914OM     OM1 2914   1.961   5.518   3.368
 2915OM     OM1 2915   1.961   5.372   3.782
 2916OM     OM1 2916   1.834   5.299   3.988
 2917OM     OM1 2917   1.961   5.225   4.195
 2918OM     OM1 2918   1.834   5.445   4.195
 2919OM     OM1 2919   1.961   5.664   4.195
 2920OM     OM1 2920   1.834   5.591   4.402
 2921OM     OM1 2921   1.834   5.737   4.608
 2922OM     OM1 2922   1.961   5.518   4.608
 2923OM     OM1 2923   1.961   5.372   5.022
 2924OM     OM1 2924   1.834   5.299   5.228
 2925OM     OM1 2925   1.961   5.225   5.435
 2926OM     OM1 2926   1.834   5.445   5.435
 2927OM     OM1 2927   1.961   5.664   5.435
 2928OM     OM1 2928   1.834   5.591   5.642
 2929OM     OM1 2929   1.834   5.737   5.848
 2930OM     OM1 2930   1.961   5.518   5.848
 2931OM     OM1 2931   1.834   5.883   6.055
 2932OM     OM1 2932   1.961   5.810   0.062
 2933OM     OM1 2933   1.834   5.883   1.095
 2934OM     OM1 2934   1.961   5.956   0.888
 2935OM     OM1 2935   1.961   5.810   1.302
 2936OM     OM1 2936   1.961   5.956   2.128
 2937OM     OM1 2937   1.834   5.883   2.335
 2938OM     OM1 2938   1.961   5.810   2.542
 2939OM     OM1 2939   1.961   5.956   3.368
 2940OM     OM1 2940   1.834   5.883   3.575
 2941OM     OM1 2941   1.961   5.810   3.782
 2942OM     OM1 2942   1.961   5.956   4.608
 2943OM     OM1 2943   1.834   5.883   4.815
 2944OM     OM1 2944   1.961   5.810   5.022
 2945OM     OM1 2945   1.961   5.956   5.848
 2946OM     OM1 2946   2.214   0.110   0.062
 2947OM     OM1 2947   2.340   0.036   0.268
 2948OM     OM1 2948   2.467   0.110   0.062
 2949OM     OM1 2949   2.340   6.029   0.062
 2950OM     OM1 2950   2.087   0.183   6.055
 2951OM     OM1 2951   2.087   0.329   0.062
 2952OM     OM1 2952   2.340   0.183   0.475
 2953OM     OM1 2953   2.214   6.102   0.475
 2954OM     OM1 2954   2.467   6.102   0.475
 2955OM     OM1 2955   2.214   0.402   0.475
 2956OM     OM1 2956   2.467   0.402   0.475
 2957OM     OM1 2957   2.340   0.329   0.682
 2958OM     OM1 2958   2.340   0.475   0.888
 2959OM     OM1 2959   2.214   0.256   0.888
 2960OM     OM1 2960   2.467   0.256   0.888
 2961OM     OM1 2961   2.087   0.183   1.095
 2962OM     OM1 2962   2.087   0.036   0.888
 2963OM     OM1 2963   2.214   0.110   1.302
 2964OM     OM1 2964   2.340   0.036   1.508
 2965OM     OM1 2965   2.467   0.110   1.302
 2966OM     OM1 2966   2.340   6.029   1.302
 2967OM     OM1 2967   2.087   0.329   1.302
 2968OM     OM1 2968   2.340   0.183   1.715
 2969OM     OM1 2969   2.214   6.102   1.715
 2970OM     OM1 2970   2.467   6.102   1.715
 2971OM     OM1 2971   2.214   0.402   1.715
 2972OM     OM1 2972   2.467   0.402   1.715
 2973OM     OM1 2973   2.340   0.329   1.922
 2974OM     OM1 2974   2.340   0.475   2.128
 2975OM     OM1 2975   2.214   0.256   2.128
 2976OM     OM1 2976   2.467   0.256   2.128
 2977OM     OM1 2977   2.087   0.036   2.128
 2978OM     OM1 2978   2.087   0.183   2.335
 2979OM     OM1 2979   2.214   0.110   2.542
 2980OM     OM1 2980   2.467   0.110   2.542
 2981OM     OM1 2981   2.340   6.029   2.542
 2982OM     OM1 2982   2.340   0.036   2.748
 2983OM     OM1 2983   2.087   0.329   2.542
 2984OM     OM1 2984   2.340   0.183   2.955
 2985OM     OM1 2985   2.214   6.102   2.955
 2986OM     OM1 2986   2.467   6.102   2.955
 2987OM     OM1 2987   2.214   0.402   2.955
 2988OM     OM1 2988   2.467   0.402   2.955
 2989OM     OM1 2989   2.340   0.329   3.162
 2990OM     OM1 2990   2.340   0.475   3.368
 2991OM     OM1 2991   2.214   0.256   3.368
 2992OM     OM1 2992   2.467   0.256   3.368
 2993OM     OM1 2993   2.087   0.036   3.368
 2994OM     OM1 2994   2.087   0.183   3.575
 2995OM     OM1 2995   2.214   0.110   3.782
 2996OM     OM1 2996   2.467   0.110   3.782
 2997OM     OM1 2997   2.340   6.029   3.782
 2998OM     OM1 2998   2.340   0.036   3.988
 2999OM     OM1 2999   2.087   0.329   3.782
 3000OM     OM1 3000   2.340   0.183   4.195
 3001OM     OM1 3001   2.214   6.102   4.195
 3002OM     OM1 3002   2.467   6.102   4.195
 3003OM     OM1 3003   2.214   0.402   4.195
 3004OM     OM1 3004   2.467   0.402   4.195
 3005OM     OM1 3005   2.340   0.329   4.402
 3006OM     OM1 3006   2.340   0.475   4.608
 3007OM     OM1 3007   2.214   0.256   4.608
 3008OM     OM1 3008   2.467   0.256   4.608
 3009OM     OM1 3009   2.087   0.036   4.608
 3010OM     OM1 3010   2.087   0.183   4.815
 3011OM     OM1 3011   2.214   0.110   5.022
 3012OM     OM1 3012   2.467   0.110   5.022
 3013OM     OM1 3013   2.340   6.029   5.022
 3014OM     OM1 3014   2.340   0.036   5.228
 3015OM     OM1 3015   2.087   0.329   5.022
 3016OM     OM1 3016   2.340   0.183   5.435
 3017OM     OM1 3017   2.214   6.102   5.435
 3018OM     OM1 3018   2.467   6.102   5.435
 3019OM     OM1 3019   2.214   0.402   5.435
 3020OM     OM1 3020   2.467   0.402   5.435
 3021OM     OM1 3021   2.340   0.329   5.642
 3022OM     OM1 3022   2.340   0.475   5.848
 3023OM     OM1 3023   2.214   0.256   5.848
 3024OM     OM1 3024   2.467   0.256   5.848
 3025OM     OM1 3025   2.087   0.036   5.848
 3026OM     OM1 3026   2.340   0.621   6.055
 3027OM     OM1 3027   2.214   0.548   0.062
 3028OM     OM1 3028   2.340   0.767   0.062
 3029OM     OM1 3029   2.467   0.548   0.062
 3030OM     OM1 3030   2.087   0.475   0.268
 3031OM     OM1 3031   2.087   0.621   0.475
 3032OM     OM1 3032   2.214   0.840   0.475
 3033OM     OM1 3033   2.087   0.767   0.682
 3034OM     OM1 3034   2.340   0.621   1.095
 3035OM     OM1 3035   2.214   0.694   0.888
 3036OM     OM1 3036   2.467   0.694   0.888
 3037OM     OM1 3037   2.087   0.913   0.888
 3038OM     OM1 3038   2.214   0.548   1.302
 3039OM     OM1 3039   2.340   0.767   1.302
 3040OM     OM1 3040   2.467   0.548   1.302
 3041OM     OM1 3041   2.087   0.475   1.508
 3042OM     OM1 3042   2.087   0.621   1.715
 3043OM     OM1 3043   2.214   0.840   1.715
 3044OM     OM1 3044   2.087   0.767   1.922
 3045OM     OM1 3045   2.214   0.694   2.128
 3046OM     OM1 3046   2.467   0.694   2.128
 3047OM     OM1 3047   2.340   0.621   2.335
 3048OM     OM1 3048   2.087   0.913   2.128
 3049OM     OM1 3049   2.214   0.548   2.542
 3050OM     OM1 3050   2.340   0.767   2.542
 3051OM     OM1 3051   2.467   0.548   2.542
 3052OM     OM1 3052   2.087   0.475   2.748
 3053OM     OM1 3053   2.087   0.621   2.955
 3054OM     OM1 3054   2.214   0.840   2.955
 3055OM     OM1 3055   2.087   0.767   3.162
 3056OM     OM1 3056   2.214   0.694   3.368
 3057OM     OM1 3057   2.467   0.694   3.368
 3058OM     OM1 3058   2.340   0.621   3.575
 3059OM     OM1 3059   2.087   0.913   3.368
 3060OM     OM1 3060   2.214   0.548   3.782
 3061OM     OM1 3061   2.340   0.767   3.782
 3062OM     OM1 3062   2.467   0.548   3.782
 3063OM     OM1 3063   2.087   0.475   3.988
 3064OM     OM1 3064   2.087   0.621   4.195
 3065OM     OM1 3065   2.214   0.840   4.195
 3066OM     OM1 3066   2.087   0.767   4.402
 3067OM     OM1 3067   2.214   0.694   4.608
 3068OM     OM1 3068   2.467   0.694   4.608
 3069OM     OM1 3069   2.340   0.621   4.815
 3070OM     OM1 3070   2.087   0.913   4.608
 3071OM     OM1 3071   2.214   0.548   5.022
 3072OM     OM1 3072   2.340   0.767   5.022
 3073OM     OM1 3073   2.467   0.548   5.022
 3074OM     OM1 3074   2.087   0.475   5.228
 3075OM     OM1 3075   2.087   0.621   5.435
 3076OM     OM1 3076   2.214   0.840   5.435
 3077OM     OM1 3077   2.087   0.767   5.642
 3078OM     OM1 3078   2.214   0.694   5.848
 3079OM     OM1 3079   2.467   0.694   5.848
 3080OM     OM1 3080   2.087   0.913   5.848
 3081OM     OM1 3081   2.214   0.987   0.062
 3082OM     OM1 3082   2.340   0.913   0.268
 3083OM     OM1 3083   2.467   0.987   0.062
 3084OM     OM1 3084   2.087   1.060   6.055
 3085OM     OM1 3085   2.087   1.206   0.062
 3086OM     OM1 3086   2.340   1.060   0.475
 3087OM     OM1 3087   2.467   0.840   0.475
 3088OM     OM1 3088   2.087   1.060   1.095
 3089OM     OM1 3089   2.214   1.133   0.888
 3090OM     OM1 3090   2.214   0.987   1.302
 3091OM     OM1 3091   2.340   0.913   1.508
 3092OM     OM1 3092   2.467   0.987   1.302
 3093OM     OM1 3093   2.087   1.206   1.302
 3094OM     OM1 3094   2.340   1.060   1.715
 3095OM     OM1 3095   2.467   0.840   1.715
 3096OM     OM1 3096   2.214   1.133   2.128
 3097OM     OM1 3097   2.087   1.060   2.335
 3098OM     OM1 3098   2.214   0.987   2.542
 3099OM     OM1 3099   2.467   0.987   2.542
 3100OM     OM1 3100   2.340   0.913   2.748
 3101OM     OM1 3101   2.087   1.206   2.542
 3102OM     OM1 3102   2.340   1.060   2.955
 3103OM     OM1 3103   2.467   0.840   2.955
 3104OM     OM1 3104   2.214   1.133   3.368
 3105OM     OM1 3105   2.087   1.060   3.575
 3106OM     OM1 3106   2.214   0.987   3.782
 3107OM     OM1 3107   2.467   0.987   3.782
 3108OM     OM1 3108   2.340   0.913   3.988
 3109OM     OM1 3109   2.087   1.206   3.782
 3110OM     OM1 3110   2.340   1.060   4.195
 3111OM     OM1 3111   2.467   0.840   4.195
 3112OM     OM1 3112   2.214   1.133   4.608
 3113OM     OM1 3113   2.087   1.060   4.815
 3114OM     OM1 3114   2.214   0.987   5.022
 3115OM     OM1 3115   2.467   0.987   5.022
 3116OM     OM1 3116   2.340   0.913   5.228
 3117OM     OM1 3117   2.087   1.206   5.022
 3118OM     OM1 3118   2.340   1.060   5.435
 3119OM     OM1 3119   2.467   0.840   5.435
 3120OM     OM1 3120   2.214   1.133   5.848
 3121OM     OM1 3121   2.087   1.352   0.268
 3122OM     OM1 3122   2.214   1.279   0.475
 3123OM     OM1 3123   2.340   1.206   0.682
 3124OM     OM1 3124   2.467   1.133   0.888
 3125OM     OM1 3125   2.087   1.352   1.508
 3126OM     OM1 3126   2.214   1.279   1.715
 3127OM     OM1 3127   2.340   1.206   1.922
 3128OM     OM1 3128   2.467   1.133   2.128
 3129OM     OM1 3129   2.087   1.352   2.748
 3130OM     OM1 3130   2.214   1.279   2.955
 3131OM     OM1 3131   2.340   1.206   3.162
 3132OM     OM1 3132   2.467   1.133   3.368
 3133OM     OM1 3133   2.087   1.352   3.988
 3134OM     OM1 3134   2.214   1.279   4.195
 3135OM     OM1 3135   2.340   1.206   4.402
 3136OM     OM1 3136   2.467   1.133   4.608
 3137OM     OM1 3137   2.087   1.352   5.228
 3138OM     OM1 3138   2.214   1.279   5.435
 3139OM     OM1 3139   2.340   1.206   5.642
 3140OM     OM1 3140   2.467   1.133   5.848
 3141OM     OM1 3141   2.340   5.006   6.055
 3142OM     OM1 3142   2.214   4.933   0.062
 3143OM     OM1 3143   2.340   5.152   0.062
 3144OM     OM1 3144   2.087   4.860   0.268
 3145OM     OM1 3145   2.087   5.006   0.475
 3146OM     OM1 3146   2.214   5.225   0.475
 3147OM     OM1 3147   2.087   5.152   0.682
 3148OM     OM1 3148   2.340   5.006   1.095
 3149OM     OM1 3149   2.214   5.079   0.888
 3150OM     OM1 3150   2.467   5.079   0.888
 3151OM     OM1 3151   2.087   5.299   0.888
 3152OM     OM1 3152   2.214   4.933   1.302
 3153OM     OM1 3153   2.340   5.152   1.302
 3154OM     OM1 3154   2.087   4.860   1.508
 3155OM     OM1 3155   2.087   5.006   1.715
 3156OM     OM1 3156   2.214   5.225   1.715
 3157OM     OM1 3157   2.087   5.152   1.922
 3158OM     OM1 3158   2.214   5.079   2.128
 3159OM     OM1 3159   2.467   5.079   2.128
 3160OM     OM1 3160   2.340   5.006   2.335
 3161OM     OM1 3161   2.087   5.299   2.128
 3162OM     OM1 3162   2.214   4.933   2.542
 3163OM     OM1 3163   2.340   5.152   2.542
 3164OM     OM1 3164   2.087   4.860   2.748
 3165OM     OM1 3165   2.087   5.006   2.955
 3166OM     OM1 3166   2.214   5.225   2.955
 3167OM     OM1 3167   2.087   5.152   3.162
 3168OM     OM1 3168   2.214   5.079   3.368
 3169OM     OM1 3169   2.467   5.079   3.368
 3170OM     OM1 3170   2.340   5.006   3.575
 3171OM     OM1 3171   2.087   5.299   3.368
 3172OM     OM1 3172   2.214   4.933   3.782
 3173OM     OM1 3173   2.340   5.152   3.782
 3174OM     OM1 3174   2.087   4.860   3.988
 3175OM     OM1 3175   2.087   5.006   4.195
 3176OM     OM1 3176   2.214   5.225   4.195
 3177OM     OM1 3177   2.087   5.152   4.402
 3178OM     OM1 3178   2.214   5.079   4.608
 3179OM     OM1 3179   2.467   5.079   4.608
 3180OM     OM1 3180   2.340   5.006   4.815
 3181OM     OM1 3181   2.087   5.299   4.608
 3182OM     OM1 3182   2.214   4.933   5.022
 3183OM     OM1 3183   2.340   5.152   5.022
 3184OM     OM1 3184   2.087   4.860   5.228
 3185OM     OM1 3185   2.087   5.006   5.435
 3186OM     OM1 3186   2.214   5.225   5.435
 3187OM     OM1 3187   2.087   5.152   5.642
 3188OM     OM1 3188   2.214   5.079   5.848
 3189OM     OM1 3189   2.467   5.079   5.848
 3190OM     OM1 3190   2.087   5.299   5.848
 3191OM     OM1 3191   2.214   5.372   0.062
 3192OM     OM1 3192   2.340   5.299   0.268
 3193OM     OM1 3193   2.467   5.372   0.062
 3194OM     OM1 3194   2.087   5.445   6.055
 3195OM     OM1 3195   2.087   5.591   0.062
 3196OM     OM1 3196   2.340   5.445   0.475
 3197OM     OM1 3197   2.467   5.225   0.475
 3198OM     OM1 3198   2.214   5.664   0.475
 3199OM     OM1 3199   2.467   5.664   0.475
 3200OM     OM1 3200   2.340   5.591   0.682
 3201OM     OM1 3201   2.340   5.737   0.888
 3202OM     OM1 3202   2.214   5.518   0.888
 3203OM     OM1 3203   2.467   5.518   0.888
 3204OM     OM1 3204   2.087   5.445   1.095
 3205OM     OM1 3205   2.214   5.372   1.302
 3206OM     OM1 3206   2.340   5.299   1.508
 3207OM     OM1 3207   2.467   5.372   1.302
 3208OM     OM1 3208   2.087   5.591   1.302
 3209OM     OM1 3209   2.340   5.445   1.715
 3210OM     OM1 3210   2.467   5.225   1.715
 3211OM     OM1 3211   2.214   5.664   1.715
 3212OM     OM1 3212   2.467   5.664   1.715
 3213OM     OM1 3213   2.340   5.591   1.922
 3214OM     OM1 3214   2.340   5.737   2.128
 3215OM     OM1 3215   2.214   5.518   2.128
 3216OM     OM1 3216   2.467   5.518   2.128
 3217OM     OM1 3217   2.087   5.445   2.335
 3218OM     OM1 3218   2.214   5.372   2.542
 3219OM     OM1 3219   2.467   5.372   2.542
 3220OM     OM1 3220   2.340   5.299   2.748
 3221OM     OM1 3221   2.087   5.591   2.542
 3222OM     OM1 3222   2.340   5.445   2.955
 3223OM     OM1 3223   2.467   5.225   2.955
 3224OM     OM1 3224   2.214   5.664   2.955
 3225OM     OM1 3225   2.467   5.664   2.955
 3226OM     OM1 3226   2.340   5.591   3.162
 3227OM     OM1 3227   2.340   5.737   3.368
 3228OM     OM1 3228   2.214   5.518   3.368
 3229OM     OM1 3229   2.467   5.518   3.368
 3230OM     OM1 3230   2.087   5.445   3.575
 3231OM     OM1 3231   2.214   5.372   3.782
 3232OM     OM1 3232   2.467   5.372   3.782
 3233OM     OM1 3233   2.340   5.299   3.988
 3234OM     OM1 3234   2.087   5.591   3.782
 3235OM     OM1 3235   2.340   5.445   4.195
 3236OM     OM1 3236   2.467   5.225   4.195
 3237OM     OM1 3237   2.214   5.664   4.195
 3238OM     OM1 3238   2.467   5.664   4.195
 3239OM     OM1 3239   2.340   5.591   4.402
 3240OM     OM1 3240   2.340   5.737   4.608
 3241OM     OM1 3241   2.214   5.518   4.608
 3242OM     OM1 3242   2.467   5.518   4.608
 3243OM     OM1 3243   2.087   5.445   4.815
 3244OM     OM1 3244   2.214   5.372   5.022
 3245OM     OM1 3245   2.467   5.372   5.022
 3246OM     OM1 3246   2.340   5.299   5.228
 3247OM     OM1 3247   2.087   5.591   5.022
 3248OM     OM1 3248   2.340   5.445   5.435
 3249OM     OM1 3249   2.467   5.225   5.435
 3250OM     OM1 3250   2.214   5.664   5.435
 3251OM     OM1 3251   2.467   5.664   5.435
 3252OM     OM1 3252   2.340   5.591   5.642
 3253OM     OM1 3253   2.340   5.737   5.848
 3254OM     OM1 3254   2.214   5.518   5.848
 3255OM     OM1 3255   2.467   5.518   5.848
 3256OM     OM1 3256   2.340   5.883   6.055
 3257OM     OM1 3257   2.214   5.810   0.062
 3258OM     OM1 3258   2.467   5.810   0.062
 3259OM     OM1 3259   2.087   5.737   0.268
 3260OM     OM1 3260   2.087   5.883   0.475
 3261OM     OM1 3261   2.087   6.029   0.682
 3262OM     OM1 3262   2.340   5.883   1.095
 3263OM     OM1 3263   2.214   5.956   0.888
 3264OM     OM1 3264   2.467   5.956   0.888
 3265OM     OM1 3265   2.214   5.810   1.302
 3266OM     OM1 3266   2.467   5.810   1.302
 3267OM     OM1 3267   2.087   5.737   1.508
 3268OM     OM1 3268   2.087   5.883   1.715
 3269OM     OM1 3269   2.087   6.029   1.922
 3270OM     OM1 3270   2.214   5.956   2.128
 3271OM     OM1 3271   2.467   5.956   2.128
 3272OM     OM1 3272   2.340   5.883   2.335
 3273OM     OM1 3273   2.214   5.810   2.542
 3274OM     OM1 3274   2.467   5.810   2.542
 3275OM     OM1 3275   2.087   5.737   2.748
 3276OM     OM1 3276   2.087   5.883   2.955
 3277OM     OM1 3277   2.087   6.029   3.162
 3278OM     OM1 3278   2.214   5.956   3.368
 3279OM     OM1 3279   2.467   5.956   3.368
 3280OM     OM1 3280   2.340   5.883   3.575
 3281OM     OM1 3281   2.214   5.810   3.782
 3282OM     OM1 3282   2.467   5.810   3.782
 3283OM     OM1 3283   2.087   5.737   3.988
 3284OM     OM1 3284   2.087   5.883   4.195
 3285OM     OM1 3285   2.087   6.029   4.402
 3286OM     OM1 3286   2.214   5.956   4.608
 3287OM     OM1 3287   2.467   5.956   4.608
 3288OM     OM1 3288   2.340   5.883   4.815
 3289OM     OM1 3289   2.214   5.810   5.022
 3290OM     OM1 3290   2.467   5.810   5.022
 3291OM     OM1 3291   2.087   5.737   5.228
 3292OM     OM1 3292   2.087   5.883   5.435
 3293OM     OM1 3293   2.087   6.029   5.642
 3294OM     OM1 3294   2.214   5.956   5.848
 3295OM     OM1 3295   2.467   5.956   5.848
 3296OM     OM1 3296   2.593   0.183   6.055
 3297OM     OM1 3297   2.720   0.110   0.062
 3298OM     OM1 3298   2.593   0.329   0.062
 3299OM     OM1 3299   2.593   0.183   1.095
 3300OM     OM1 3300   2.720   0.256   0.888
 3301OM     OM1 3301   2.593   0.036   0.888
 3302OM     OM1 3302   2.720   0.110   1.302
 3303OM     OM1 3303   2.593   0.329   1.302
 3304OM     OM1 3304   2.720   0.256   2.128
 3305OM     OM1 3305   2.593   0.036   2.128
 3306OM     OM1 3306   2.593   0.183   2.335
 3307OM     OM1 3307   2.720   0.110   2.542
 3308OM     OM1 3308   2.593   0.329   2.542
 3309OM     OM1 3309   2.720   0.256   3.368
 3310OM     OM1 3310   2.593   0.036   3.368
 3311OM     OM1 3311   2.593   0.183   3.575
 3312OM     OM1 3312   2.720   0.110   3.782
 3313OM     OM1 3313   2.593   0.329   3.782
 3314OM     OM1 3314   2.720   0.256   4.608
 3315OM     OM1 3315   2.593   0.036   4.608
 3316OM     OM1 3316   2.593   0.183   4.815
 3317OM     OM1 3317   2.720   0.110   5.022
 3318OM     OM1 3318   2.593   0.329   5.022
 3319OM     OM1 3319   2.720   0.256   5.848
 3320OM     OM1 3320   2.593   0.036   5.848
 3321OM     OM1 3321   2.720   0.548   0.062
 3322OM     OM1 3322   2.593   0.475   0.268
 3323OM     OM1 3323   2.720   0.402   0.475
 3324OM     OM1 3324   2.593   0.621   0.475
 3325OM     OM1 3325   2.720   0.840   0.475
 3326OM     OM1 3326   2.593   0.767   0.682
 3327OM     OM1 3327   2.593   0.913   0.888
 3328OM     OM1 3328   2.720   0.694   0.888
 3329OM     OM1 3329   2.720   0.548   1.302
 3330OM     OM1 3330   2.593   0.475   1.508
 3331OM     OM1 3331   2.720   0.402   1.715
 3332OM     OM1 3332   2.593   0.621   1.715
 3333OM     OM1 3333   2.720   0.840   1.715
 3334OM     OM1 3334   2.593   0.767   1.922
 3335OM     OM1 3335   2.593   0.913   2.128
 3336OM     OM1 3336   2.720   0.694   2.128
 3337OM     OM1 3337   2.720   0.548   2.542
 3338OM     OM1 3338   2.593   0.475   2.748
 3339OM     OM1 3339   2.720   0.402   2.955
 3340OM     OM1 3340   2.593   0.621   2.955
 3341OM     OM1 3341   2.720   0.840   2.955
 3342OM     OM1 3342   2.593   0.767   3.162
 3343OM     OM1 3343   2.593   0.913   3.368
 3344OM     OM1 3344   2.720   0.694   3.368
 3345OM     OM1 3345   2.720   0.548   3.782
 3346OM     OM1 3346   2.593   0.475   3.988
 3347OM     OM1 3347   2.720   0.402   4.195
 3348OM     OM1 3348   2.593   0.621   4.195
 3349OM     OM1 3349   2.720   0.840   4.195
 3350OM     OM1 3350   2.593   0.767   4.402
 3351OM     OM1 3351   2.593   0.913   4.608
 3352OM     OM1 3352   2.720   0.694   4.608
 3353OM     OM1 3353   2.720   0.548   5.022
 3354OM     OM1 3354   2.593   0.475   5.228
 3355OM     OM1 3355   2.720   0.402   5.435
 3356OM     OM1 3356   2.593   0.621   5.435
 3357OM     OM1 3357   2.720   0.840   5.435
 3358OM     OM1 3358   2.593   0.767   5.642
 3359OM     OM1 3359   2.593   0.913   5.848
 3360OM     OM1 3360   2.720   0.694   5.848
 3361OM     OM1 3361   2.593   1.060   6.055
 3362OM     OM1 3362   2.720   0.987   0.062
 3363OM     OM1 3363   2.593   1.060   1.095
 3364OM     OM1 3364   2.720   0.987   1.302
 3365OM     OM1 3365   2.593   1.060   2.335
 3366OM     OM1 3366   2.720   0.987   2.542
 3367OM     OM1 3367   2.593   1.060   3.575
 3368OM     OM1 3368   2.720   0.987   3.782
 3369OM     OM1 3369   2.593   1.060   4.815
 3370OM     OM1 3370   2.720   0.987   5.022
 3371OM     OM1 3371   2.720   5.225   0.475
 3372OM     OM1 3372   2.593   5.152   0.682
 3373OM     OM1 3373   2.593   5.299   0.888
 3374OM     OM1 3374   2.720   5.079   0.888
 3375OM     OM1 3375   2.720   5.225   1.715
 3376OM     OM1 3376   2.593   5.152   1.922
 3377OM     OM1 3377   2.593   5.299   2.128
 3378OM     OM1 3378   2.720   5.079   2.128
 3379OM     OM1 3379   2.720   5.225   2.955
 3380OM     OM1 3380   2.593   5.152   3.162
 3381OM     OM1 3381   2.593   5.299   3.368
 3382OM     OM1 3382   2.720   5.079   3.368
 3383OM     OM1 3383   2.720   5.225   4.195
 3384OM     OM1 3384   2.593   5.152   4.402
 3385OM     OM1 3385   2.593   5.299   4.608
 3386OM     OM1 3386   2.720   5.079   4.608
 3387OM     OM1 3387   2.720   5.225   5.435
 3388OM     OM1 3388   2.593   5.152   5.642
 3389OM     OM1 3389   2.593   5.299   5.848
 3390OM     OM1 3390   2.720   5.079   5.848
 3391OM     OM1 3391   2.593   5.445   6.055
 3392OM     OM1 3392   2.720   5.372   0.062
 3393OM     OM1 3393   2.593   5.591   0.062
 3394OM     OM1 3394   2.593   5.445   1.095
 3395OM     OM1 3395   2.720   5.518   0.888
 3396OM     OM1 3396   2.720   5.372   1.302
 3397OM     OM1 3397   2.593   5.591   1.302
 3398OM     OM1 3398   2.720   5.518   2.128
 3399OM     OM1 3399   2.593   5.445   2.335
 3400OM     OM1 3400   2.720   5.372   2.542
 3401OM     OM1 3401   2.593   5.591   2.542
 3402OM     OM1 3402   2.720   5.518   3.368
 3403OM     OM1 3403   2.593   5.445   3.575
 3404OM     OM1 3404   2.720   5.372   3.782
 3405OM     OM1 3405   2.593   5.591   3.782
 3406OM     OM1 3406   2.720   5.518   4.608
 3407OM     OM1 3407   2.593   5.445   4.815
 3408OM     OM1 3408   2.720   5.372   5.022
 3409OM     OM1 3409   2.593   5.591   5.022
 3410OM     OM1 3410   2.720   5.518   5.848
 3411OM     OM1 3411   2.720   5.810   0.062
 3412OM     OM1 3412   2.593   5.737   0.268
 3413OM     OM1 3413   2.720   5.664   0.475
 3414OM     OM1 3414   2.593   5.883   0.475
 3415OM     OM1 3415   2.720   6.102   0.475
 3416OM     OM1 3416   2.593   6.029   0.682
 3417OM     OM1 3417   2.720   5.956   0.888
 3418OM     OM1 3418   2.720   5.810   1.302
 3419OM     OM1 3419   2.593   5.737   1.508
 3420OM     OM1 3420   2.720   5.664   1.715
 3421OM     OM1 3421   2.593   5.883   1.715
 3422OM     OM1 3422   2.720   6.102   1.715
 3423OM     OM1 3423   2.593   6.029   1.922
 3424OM     OM1 3424   2.720   5.956   2.128
 3425OM     OM1 3425   2.720   5.810   2.542
 3426OM     OM1 3426   2.593   5.737   2.748
 3427OM     OM1 3427   2.720   5.664   2.955
 3428OM     OM1 3428   2.593   5.883   2.955
 3429OM     OM1 3429   2.720   6.102   2.955
 3430OM     OM1 3430   2.593   6.029   3.162
 3431OM     OM1 3431   2.720   5.956   3.368
 3432OM     OM1 3432   2.720   5.810   3.782
 3433OM     OM1 3433   2.593   5.737   3.988
 3434OM     OM1 3434   2.720   5.664   4.195
 3435OM     OM1 3435   2.593   5.883   4.195
 3436OM     OM1 3436   2.720   6.102   4.195
 3437OM     OM1 3437   2.593   6.029   4.402
 3438OM     OM1 3438   2.720   5.956   4.608
 3439OM     OM1 3439   2.720   5.810   5.022
 3440OM     OM1 3440   2.593   5.737   5.228
 3441OM     OM1 3441   2.720   5.664   5.435
 3442OM     OM1 3442   2.593   5.883   5.435
 3443OM     OM1 3443   2.720   6.102   5.435
 3444OM     OM1 3444   2.593   6.029   5.642
 3445OM     OM1 3445   2.720   5.956   5.848
 3446OM     OM1 3446   2.973   0.110   0.062
 3447OM     OM1 3447   2.846   0.036   0.268
 3448OM     OM1 3448   2.846   6.029   0.062
 3449OM     OM1 3449   3.099   0.183   6.055
 3450OM     OM1 3450   3.099   0.329   0.062
 3451OM     OM1 3451   3.226   0.110   0.062
 3452OM     OM1 3452   2.846   0.183   0.475
 3453OM     OM1 3453   2.973   6.102   0.475
 3454OM     OM1 3454   2.973   0.402   0.475
 3455OM     OM1 3455   2.846   0.329   0.682
 3456OM     OM1 3456   2.846   0.475   0.888
 3457OM     OM1 3457   2.973   0.256   0.888
 3458OM     OM1 3458   3.099   0.183   1.095
 3459OM     OM1 3459   3.099   0.036   0.888
 3460OM     OM1 3460   3.226   0.256   0.888
 3461OM     OM1 3461   2.973   0.110   1.302
 3462OM     OM1 3462   2.846   0.036   1.508
 3463OM     OM1 3463   2.846   6.029   1.302
 3464OM     OM1 3464   3.099   0.329   1.302
 3465OM     OM1 3465   3.226   0.110   1.302
 3466OM     OM1 3466   2.846   0.183   1.715
 3467OM     OM1 3467   2.973   6.102   1.715
 3468OM     OM1 3468   2.973   0.402   1.715
 3469OM     OM1 3469   2.846   0.329   1.922
 3470OM     OM1 3470   2.846   0.475   2.128
 3471OM     OM1 3471   2.973   0.256   2.128
 3472OM     OM1 3472   3.099   0.036   2.128
 3473OM     OM1 3473   3.226   0.256   2.128
 3474OM     OM1 3474   3.099   0.183   2.335
 3475OM     OM1 3475   2.973   0.110   2.542
 3476OM     OM1 3476   2.846   6.029   2.542
 3477OM     OM1 3477   2.846   0.036   2.748
 3478OM     OM1 3478   3.099   0.329   2.542
 3479OM     OM1 3479   3.226   0.110   2.542
 3480OM     OM1 3480   2.846   0.183   2.955
 3481OM     OM1 3481   2.973   6.102   2.955
 3482OM     OM1 3482   2.973   0.402   2.955
 3483OM     OM1 3483   2.846   0.329   3.162
 3484OM     OM1 3484   2.846   0.475   3.368
 3485OM     OM1 3485   2.973   0.256   3.368
 3486OM     OM1 3486   3.099   0.036   3.368
 3487OM     OM1 3487   3.226   0.256   3.368
 3488OM     OM1 3488   3.099   0.183   3.575
 3489OM     OM1 3489   2.973   0.110   3.782
 3490OM     OM1 3490   2.846   6.029   3.782
 3491OM     OM1 3491   2.846   0.036   3.988
 3492OM     OM1 3492   3.099   0.329   3.782
 3493OM     OM1 3493   3.226   0.110   3.782
 3494OM     OM1 3494   2.846   0.183   4.195
 3495OM     OM1 3495   2.973   6.102   4.195
 3496OM     OM1 3496   2.973   0.402   4.195
 3497OM     OM1 3497   2.846   0.329   4.402
 3498OM     OM1 3498   2.846   0.475   4.608
 3499OM     OM1 3499   2.973   0.256   4.608
 3500OM     OM1 3500   3.099   0.036   4.608
 3501OM     OM1 3501   3.226   0.256   4.608
 3502OM     OM1 3502   3.099   0.183   4.815
 3503OM     OM1 3503   2.973   0.110   5.022
 3504OM     OM1 3504   2.846   6.029   5.022
 3505OM     OM1 3505   2.846   0.036   5.228
 3506OM     OM1 3506   3.099   0.329   5.022
 3507OM     OM1 3507   3.226   0.110   5.022
 3508OM     OM1 3508   2.846   0.183   5.435
 3509OM     OM1 3509   2.973   6.102   5.435
 3510OM     OM1 3510   2.973   0.402   5.435
 3511OM     OM1 3511   2.846   0.329   5.642
 3512OM     OM1 3512   2.846   0.475   5.848
 3513OM     OM1 3513   2.973   0.256   5.848
 3514OM     OM1 3514   3.099   0.036   5.848
 3515OM     OM1 3515   3.226   0.256   5.848
 3516OM     OM1 3516   2.846   0.621   6.055
 3517OM     OM1 3517   2.973   0.548   0.062
 3518OM     OM1 3518   2.846   0.767   0.062
 3519OM     OM1 3519   3.099   0.475   0.268
 3520OM     OM1 3520   3.226   0.548   0.062
 3521OM     OM1 3521   3.099   0.621   0.475
 3522OM     OM1 3522   3.226   0.402   0.475
 3523OM     OM1 3523   2.973   0.840   0.475
 3524OM     OM1 3524   3.226   0.840   0.475
 3525OM     OM1 3525   3.099   0.767   0.682
 3526OM     OM1 3526   2.846   0.621   1.095
 3527OM     OM1 3527   2.973   0.694   0.888
 3528OM     OM1 3528   3.099   0.913   0.888
 3529OM     OM1 3529   3.226   0.694   0.888
 3530OM     OM1 3530   2.973   0.548   1.302
 3531OM     OM1 3531   2.846   0.767   1.302
 3532OM     OM1 3532   3.099   0.475   1.508
 3533OM     OM1 3533   3.226   0.548   1.302
 3534OM     OM1 3534   3.099   0.621   1.715
 3535OM     OM1 3535   3.226   0.402   1.715
 3536OM     OM1 3536   2.973   0.840   1.715
 3537OM     OM1 3537   3.226   0.840   1.715
 3538OM     OM1 3538   3.099   0.767   1.922
 3539OM     OM1 3539   2.973   0.694   2.128
 3540OM     OM1 3540   2.846   0.621   2.335
 3541OM     OM1 3541   3.099   0.913   2.128
 3542OM     OM1 3542   3.226   0.694   2.128
 3543OM     OM1 3543   2.973   0.548   2.542
 3544OM     OM1 3544   2.846   0.767   2.542
 3545OM     OM1 3545   3.226   0.548   2.542
 3546OM     OM1 3546   3.099   0.475   2.748
 3547OM     OM1 3547   3.099   0.621   2.955
 3548OM     OM1 3548   3.226   0.402   2.955
 3549OM     OM1 3549   2.973   0.840   2.955
 3550OM     OM1 3550   3.226   0.840   2.955
 3551OM     OM1 3551   3.099   0.767   3.162
 3552OM     OM1 3552   2.973   0.694   3.368
 3553OM     OM1 3553   2.846   0.621   3.575
 3554OM     OM1 3554   3.099   0.913   3.368
 3555OM     OM1 3555   3.226   0.694   3.368
 3556OM     OM1 3556   2.973   0.548   3.782
 3557OM     OM1 3557   2.846   0.767   3.782
 3558OM     OM1 3558   3.226   0.548   3.782
 3559OM     OM1 3559   3.099   0.475   3.988
 3560OM     OM1 3560   3.099   0.621   4.195
 3561OM     OM1 3561   3.226   0.402   4.195
 3562OM     OM1 3562   2.973   0.840   4.195
 3563OM     OM1 3563   3.226   0.840   4.195
 3564OM     OM1 3564   3.099   0.767   4.402
 3565OM     OM1 3565   2.973   0.694   4.608
 3566OM     OM1 3566   2.846   0.621   4.815
 3567OM     OM1 3567   3.099   0.913   4.608
 3568OM     OM1 3568   3.226   0.694   4.608
 3569OM     OM1 3569   2.973   0.548   5.022
 3570OM     OM1 3570   2.846   0.767   5.022
 3571OM     OM1 3571   3.226   0.548   5.022
 3572OM     OM1 3572   3.099   0.475   5.228
 3573OM     OM1 3573   3.099   0.621   5.435
 3574OM     OM1 3574   3.226   0.402   5.435
 3575OM     OM1 3575   2.973   0.840   5.435
 3576OM     OM1 3576   3.226   0.840   5.435
 3577OM     OM1 3577   3.099   0.767   5.642
 3578OM     OM1 3578   2.973   0.694   5.848
 3579OM     OM1 3579   3.099   0.913   5.848
 3580OM     OM1 3580   3.226   0.694   5.848
 3581OM     OM1 3581   2.973   0.987   0.062
 3582OM     OM1 3582   2.846   0.913   0.268
 3583OM     OM1 3583   3.099   1.060   6.055
 3584OM     OM1 3584   3.226   0.987   0.062
 3585OM     OM1 3585   3.099   1.060   1.095
 3586OM     OM1 3586   2.973   0.987   1.302
 3587OM     OM1 3587   2.846   0.913   1.508
 3588OM     OM1 3588   3.226   0.987   1.302
 3589OM     OM1 3589   3.099   1.060   2.335
 3590OM     OM1 3590   2.973   0.987   2.542
 3591OM     OM1 3591   2.846   0.913   2.748
 3592OM     OM1 3592   3.226   0.987   2.542
 3593OM     OM1 3593   3.099   1.060   3.575
 3594OM     OM1 3594   2.973   0.987   3.782
 3595OM     OM1 3595   2.846   0.913   3.988
 3596OM     OM1 3596   3.226   0.987   3.782
 3597OM     OM1 3597   3.099   1.060   4.815
 3598OM     OM1 3598   2.973   0.987   5.022
 3599OM     OM1 3599   2.846   0.913   5.228
 3600OM     OM1 3600   3.226   0.987   5.022
 3601OM     OM1 3601   2.846   5.006   6.055
 3602OM     OM1 3602   2.846   5.152   0.062
 3603OM     OM1 3603   2.973   5.225   0.475
 3604OM     OM1 3604   3.226   5.225   0.475
 3605OM     OM1 3605   3.099   5.152   0.682
 3606OM     OM1 3606   2.846   5.006   1.095
 3607OM     OM1 3607   2.973   5.079   0.888
 3608OM     OM1 3608   3.099   5.299   0.888
 3609OM     OM1 3609   3.226   5.079   0.888
 3610OM     OM1 3610   2.846   5.152   1.302
 3611OM     OM1 3611   2.973   5.225   1.715
 3612OM     OM1 3612   3.226   5.225   1.715
 3613OM     OM1 3613   3.099   5.152   1.922
 3614OM     OM1 3614   2.973   5.079   2.128
 3615OM     OM1 3615   2.846   5.006   2.335
 3616OM     OM1 3616   3.099   5.299   2.128
 3617OM     OM1 3617   3.226   5.079   2.128
 3618OM     OM1 3618   2.846   5.152   2.542
 3619OM     OM1 3619   2.973   5.225   2.955
 3620OM     OM1 3620   3.226   5.225   2.955
 3621OM     OM1 3621   3.099   5.152   3.162
 3622OM     OM1 3622   2.973   5.079   3.368
 3623OM     OM1 3623   2.846   5.006   3.575
 3624OM     OM1 3624   3.099   5.299   3.368
 3625OM     OM1 3625   3.226   5.079   3.368
 3626OM     OM1 3626   2.846   5.152   3.782
 3627OM     OM1 3627   2.973   5.225   4.195
 3628OM     OM1 3628   3.226   5.225   4.195
 3629OM     OM1 3629   3.099   5.152   4.402
 3630OM     OM1 3630   2.973   5.079   4.608
 3631OM     OM1 3631   2.846   5.006   4.815
 3632OM     OM1 3632   3.099   5.299   4.608
 3633OM     OM1 3633   3.226   5.079   4.608
 3634OM     OM1 3634   2.846   5.152   5.022
 3635OM     OM1 3635   2.973   5.225   5.435
 3636OM     OM1 3636   3.226   5.225   5.435
 3637OM     OM1 3637   3.099   5.152   5.642
 3638OM     OM1 3638   2.973   5.079   5.848
 3639OM     OM1 3639   3.099   5.299   5.848
 3640OM     OM1 3640   3.226   5.079   5.848
 3641OM     OM1 3641   2.973   5.372   0.062
 3642OM     OM1 3642   2.846   5.299   0.268
 3643OM     OM1 3643   3.099   5.445   6.055
 3644OM     OM1 3644   3.099   5.591   0.062
 3645OM     OM1 3645   3.226   5.372   0.062
 3646OM     OM1 3646   2.846   5.445   0.475
 3647OM     OM1 3647   2.973   5.664   0.475
 3648OM     OM1 3648   2.846   5.591   0.682
 3649OM     OM1 3649   2.846   5.737   0.888
 3650OM     OM1 3650   2.973   5.518   0.888
 3651OM     OM1 3651   3.099   5.445   1.095
 3652OM     OM1 3652   3.226   5.518   0.888
 3653OM     OM1 3653   2.973   5.372   1.302
 3654OM     OM1 3654   2.846   5.299   1.508
 3655OM     OM1 3655   3.099   5.591   1.302
 3656OM     OM1 3656   3.226   5.372   1.302
 3657OM     OM1 3657   2.846   5.445   1.715
 3658OM     OM1 3658   2.973   5.664   1.715
 3659OM     OM1 3659   2.846   5.591   1.922
 3660OM     OM1 3660   2.846   5.737   2.128
 3661OM     OM1 3661   2.973   5.518   2.128
 3662OM     OM1 3662   3.226   5.518   2.128
 3663OM     OM1 3663   3.099   5.445   2.335
 3664OM     OM1 3664   2.973   5.372   2.542
 3665OM     OM1 3665   2.846   5.299   2.748
 3666OM     OM1 3666   3.099   5.591   2.542
 3667OM     OM1 3667   3.226   5.372   2.542
 3668OM     OM1 3668   2.846   5.445   2.955
 3669OM     OM1 3669   2.973   5.664   2.955
 3670OM     OM1 3670   2.846   5.591   3.162
 3671OM     OM1 3671   2.846   5.737   3.368
 3672OM     OM1 3672   2.973   5.518   3.368
 3673OM     OM1 3673   3.226   5.518   3.368
 3674OM     OM1 3674   3.099   5.445   3.575
 3675OM     OM1 3675   2.973   5.372   3.782
 3676OM     OM1 3676   2.846   5.299   3.988
 3677OM     OM1 3677   3.099   5.591   3.782
 3678OM     OM1 3678   3.226   5.372   3.782
 3679OM     OM1 3679   2.846   5.445   4.195
 3680OM     OM1 3680   2.973   5.664   4.195
 3681OM     OM1 3681   2.846   5.591   4.402
 3682OM     OM1 3682   2.846   5.737   4.608
 3683OM     OM1 3683   2.973   5.518   4.608
 3684OM     OM1 3684   3.226   5.518   4.608
 3685OM     OM1 3685   3.099   5.445   4.815
 3686OM     OM1 3686   2.973   5.372   5.022
 3687OM     OM1 3687   2.846   5.299   5.228
 3688OM     OM1 3688   3.099   5.591   5.022
 3689OM     OM1 3689   3.226   5.372   5.022
 3690OM     OM1 3690   2.846   5.445   5.435
 3691OM     OM1 3691   2.973   5.664   5.435
 3692OM     OM1 3692   2.846   5.591   5.642
 3693OM     OM1 3693   2.846   5.737   5.848
 3694OM     OM1 3694   2.973   5.518   5.848
 3695OM     OM1 3695   3.226   5.518   5.848
 3696OM     OM1 3696   2.846   5.883   6.055
 3697OM     OM1 3697   2.973   5.810   0.062
 3698OM     OM1 3698   3.099   5.737   0.268
 3699OM     OM1 3699   3.226   5.810   0.062
 3700OM     OM1 3700   3.099   5.883   0.475
 3701OM     OM1 3701   3.226   5.664   0.475
 3702OM     OM1 3702   3.099   6.029   0.682
 3703OM     OM1 3703   3.226   6.102   0.475
 3704OM     OM1 3704   2.846   5.883   1.095
 3705OM     OM1 3705   2.973   5.956   0.888
 3706OM     OM1 3706   3.226   5.956   0.888
 3707OM     OM1 3707   2.973   5.810   1.302
 3708OM     OM1 3708   3.099   5.737   1.508
 3709OM     OM1 3709   3.226   5.810   1.302
 3710OM     OM1 3710   3.099   5.883   1.715
 3711OM     OM1 3711   3.226   5.664   1.715
 3712OM     OM1 3712   3.099   6.029   1.922
 3713OM     OM1 3713   3.226   6.102   1.715
 3714OM     OM1 3714   2.973   5.956   2.128
 3715OM     OM1 3715   2.846   5.883   2.335
 3716OM     OM1 3716   3.226   5.956   2.128
 3717OM     OM1 3717   2.973   5.810   2.542
 3718OM     OM1 3718   3.226   5.810   2.542
 3719OM     OM1 3719   3.099   5.737   2.748
 3720OM     OM1 3720   3.099   5.883   2.955
 3721OM     OM1 3721   3.226   5.664   2.955
 3722OM     OM1 3722   3.226   6.102   2.955
 3723OM     OM1 3723   3.099   6.029   3.162
 3724OM     OM1 3724   2.973   5.956   3.368
 3725OM     OM1 3725   2.846   5.883   3.575
 3726OM     OM1 3726   3.226   5.956   3.368
 3727OM     OM1 3727   2.973   5.810   3.782
 3728OM     OM1 3728   3.226   5.810   3.782
 3729OM     OM1 3729   3.099   5.737   3.988
 3730OM     OM1 3730   3.099   5.883   4.195
 3731OM     OM1 3731   3.226   5.664   4.195
 3732OM     OM1 3732   3.226   6.102   4.195
 3733OM     OM1 3733   3.099   6.029   4.402
 3734OM     OM1 3734   2.973   5.956   4.608
 3735OM     OM1 3735   2.846   5.883   4.815
 3736OM     OM1 3736   3.226   5.956   4.608
 3737OM     OM1 3737   2.973   5.810   5.022
 3738OM     OM1 3738   3.226   5.810   5.022
 3739OM     OM1 3739   3.099   5.737   5.228
 3740OM     OM1 3740   3.099   5.883   5.435
 3741OM     OM1 3741   3.226   5.664   5.435
 3742OM     OM1 3742   3.226   6.102   5.435
 3743OM     OM1 3743   3.099   6.029   5.642
 3744OM     OM1 3744   2.973   5.956   5.848
 3745OM     OM1 3745   3.226   5.956   5.848
 3746OM     OM1 3746   3.479   0.110   0.062
 3747OM     OM1 3747   3.352   0.036   0.268
 3748OM     OM1 3748   3.352   6.029   0.062
 3749OM     OM1 3749   3.352   0.183   0.475
 3750OM     OM1 3750   3.479   6.102   0.475
 3751OM     OM1 3751   3.479   0.402   0.475
 3752OM     OM1 3752   3.352   0.329   0.682
 3753OM     OM1 3753   3.352   0.475   0.888
 3754OM     OM1 3754   3.479   0.256   0.888
 3755OM     OM1 3755   3.479   0.110   1.302
 3756OM     OM1 3756   3.352   0.036   1.508
 3757OM     OM1 3757   3.352   6.029   1.302
 3758OM     OM1 3758   3.352   0.183   1.715
 3759OM     OM1 3759   3.479   6.102   1.715
 3760OM     OM1 3760   3.479   0.402   1.715
 3761OM     OM1 3761   3.352   0.329   1.922
 3762OM     OM1 3762   3.352   0.475   2.128
 3763OM     OM1 3763   3.479   0.256   2.128
 3764OM     OM1 3764   3.479   0.110   2.542
 3765OM     OM1 3765   3.352   6.029   2.542
 3766OM     OM1 3766   3.352   0.036   2.748
 3767OM     OM1 3767   3.352   0.183   2.955
 3768OM     OM1 3768   3.479   6.102   2.955
 3769OM     OM1 3769   3.479   0.402   2.955
 3770OM     OM1 3770   3.352   0.329   3.162
 3771OM     OM1 3771   3.352   0.475   3.368
 3772OM     OM1 3772   3.479   0.256   3.368
 3773OM     OM1 3773   3.479   0.110   3.782
 3774OM     OM1 3774   3.352   6.029   3.782
 3775OM     OM1 3775   3.352   0.036   3.988
 3776OM     OM1 3776   3.352   0.183   4.195
 3777OM     OM1 3777   3.479   6.102   4.195
 3778OM     OM1 3778   3.479   0.402   4.195
 3779OM     OM1 3779   3.352   0.329   4.402
 3780OM     OM1 3780   3.352   0.475   4.608
 3781OM     OM1 3781   3.479   0.256   4.608
 3782OM     OM1 3782   3.479   0.110   5.022
 3783OM     OM1 3783   3.352   6.029   5.022
 3784OM     OM1 3784   3.352   0.036   5.228
 3785OM     OM1 3785   3.352   0.183   5.435
 3786OM     OM1 3786   3.479   6.102   5.435
 3787OM     OM1 3787   3.479   0.402   5.435
 3788OM     OM1 3788   3.352   0.329   5.642
 3789OM     OM1 3789   3.352   0.475   5.848
 3790OM     OM1 3790   3.479   0.256   5.848
 3791OM     OM1 3791   3.352   0.621   6.055
 3792OM     OM1 3792   3.479   0.548   0.062
 3793OM     OM1 3793   3.352   0.767   0.062
 3794OM     OM1 3794   3.352   0.621   1.095
 3795OM     OM1 3795   3.479   0.694   0.888
 3796OM     OM1 3796   3.479   0.548   1.302
 3797OM     OM1 3797   3.352   0.767   1.302
 3798OM     OM1 3798   3.479   0.694   2.128
 3799OM     OM1 3799   3.352   0.621   2.335
 3800OM     OM1 3800   3.479   0.548   2.542
 3801OM     OM1 3801   3.352   0.767   2.542
 3802OM     OM1 3802   3.479   0.694   3.368
 3803OM     OM1 3803   3.352   0.621   3.575
 3804OM     OM1 3804   3.479   0.548   3.782
 3805OM     OM1 3805   3.352   0.767   3.782
 3806OM     OM1 3806   3.479   0.694   4.608
 3807OM     OM1 3807   3.352   0.621   4.815
 3808OM     OM1 3808   3.479   0.548   5.022
 3809OM     OM1 3809   3.352   0.767   5.022
 3810OM     OM1 3810   3.479   0.694   5.848
 3811OM     OM1 3811   3.479   0.987   0.062
 3812OM     OM1 3812   3.352   0.913   0.268
 3813OM     OM1 3813   3.479   0.840   0.475
 3814OM     OM1 3814   3.479   0.987   1.302
 3815OM     OM1 3815   3.352   0.913   1.508
 3816OM     OM1 3816   3.479   0.840   1.715
 3817OM     OM1 3817   3.479   0.987   2.542
 3818OM     OM1 3818   3.352   0.913   2.748
 3819OM     OM1 3819   3.479   0.840   2.955
 3820OM     OM1 3820   3.479   0.987   3.782
 3821OM     OM1 3821   3.352   0.913   3.988
 3822OM     OM1 3822   3.479   0.840   4.195
 3823OM     OM1 3823   3.479   0.987   5.022
 3824OM     OM1 3824   3.352   0.913   5.228
 3825OM     OM1 3825   3.479   0.840   5.435
 3826OM     OM1 3826   3.352   5.006   6.055
 3827OM     OM1 3827   3.479   4.933   0.062
 3828OM     OM1 3828   3.352   5.152   0.062
 3829OM     OM1 3829   3.352   5.006   1.095
 3830OM     OM1 3830   3.479   5.079   0.888
 3831OM     OM1 3831   3.479   4.933   1.302
 3832OM     OM1 3832   3.352   5.152   1.302
 3833OM     OM1 3833   3.479   5.079   2.128
 3834OM     OM1 3834   3.352   5.006   2.335
 3835OM     OM1 3835   3.479   4.933   2.542
 3836OM     OM1 3836   3.352   5.152   2.542
 3837OM     OM1 3837   3.479   5.079   3.368
 3838OM     OM1 3838   3.352   5.006   3.575
 3839OM     OM1 3839   3.479   4.933   3.782
 3840OM     OM1 3840   3.352   5.152   3.782
 3841OM     OM1 3841   3.479   5.079   4.608
 3842OM     OM1 3842   3.352   5.006   4.815
 3843OM     OM1 3843   3.479   4.933   5.022
 3844OM     OM1 3844   3.352   5.152   5.022
 3845OM     OM1 3845   3.479   5.079   5.848
 3846OM     OM1 3846   3.479   5.372   0.062
 3847OM     OM1 3847   3.352   5.299   0.268
 3848OM     OM1 3848   3.479   5.225   0.475
 3849OM     OM1 3849   3.352   5.445   0.475
 3850OM     OM1 3850   3.479   5.664   0.475
 3851OM     OM1 3851   3.352   5.591   0.682
 3852OM     OM1 3852   3.352   5.737   0.888
 3853OM     OM1 3853   3.479   5.518   0.888
 3854OM     OM1 3854   3.479   5.372   1.302
 3855OM     OM1 3855   3.352   5.299   1.508
 3856OM     OM1 3856   3.479   5.225   1.715
 3857OM     OM1 3857   3.352   5.445   1.715
 3858OM     OM1 3858   3.479   5.664   1.715
 3859OM     OM1 3859   3.352   5.591   1.922
 3860OM     OM1 3860   3.352   5.737   2.128
 3861OM     OM1 3861   3.479   5.518   2.128
 3862OM     OM1 3862   3.479   5.372   2.542
 3863OM     OM1 3863   3.352   5.299   2.748
 3864OM     OM1 3864   3.479   5.225   2.955
 3865OM     OM1 3865   3.352   5.445   2.955
 3866OM     OM1 3866   3.479   5.664   2.955
 3867OM     OM1 3867   3.352   5.591   3.162
 3868OM     OM1 3868   3.352   5.737   3.368
 3869OM     OM1 3869   3.479   5.518   3.368
 3870OM     OM1 3870   3.479   5.372   3.782
 3871OM     OM1 3871   3.352   5.299   3.988
 3872OM     OM1 3872   3.479   5.225   4.195
 3873OM     OM1 3873   3.352   5.445   4.195
 3874OM     OM1 3874   3.479   5.664   4.195
 3875OM     OM1 3875   3.352   5.591   4.402
 3876OM     OM1 3876   3.352   5.737   4.608
 3877OM     OM1 3877   3.479   5.518   4.608
 3878OM     OM1 3878   3.479   5.372   5.022
 3879OM     OM1 3879   3.352   5.299   5.228
 3880OM     OM1 3880   3.479   5.225   5.435
 3881OM     OM1 3881   3.352   5.445   5.435
 3882OM     OM1 3882   3.479   5.664   5.435
 3883OM     OM1 3883   3.352   5.591   5.642
 3884OM     OM1 3884   3.352   5.737   5.848
 3885OM     OM1 3885   3.479   5.518   5.848
 3886OM     OM1 3886   3.352   5.883   6.055
 3887OM     OM1 3887   3.479   5.810   0.062
 3888OM     OM1 3888   3.352   5.883   1.095
 3889OM     OM1 3889   3.479   5.956   0.888
 3890OM     OM1 3890   3.479   5.810   1.302
 3891OM     OM1 3891   3.479   5.956   2.128
 3892OM     OM1 3892   3.352   5.883   2.335
 3893OM     OM1 3893   3.479   5.810   2.542
 3894OM     OM1 3894   3.479   5.956   3.368
 3895OM     OM1 3895   3.352   5.883   3.575
 3896OM     OM1 3896   3.479   5.810   3.782
 3897OM     OM1 3897   3.479   5.956   4.608
 3898OM     OM1 3898   3.352   5.883   4.815
 3899OM     OM1 3899   3.479   5.810   5.022
 3900OM     OM1 3900   3.479   5.956   5.848
 3901OM     OM1 3901   3.985   0.110   0.062
 3902OM     OM1 3902   3.732   0.110   0.062
 3903OM     OM1 3903   3.858   0.036   0.268
 3904OM     OM1 3904   3.858   6.029   0.062
 3905OM     OM1 3905   3.605   0.183   6.055
 3906OM     OM1 3906   3.605   0.329   0.062
 3907OM     OM1 3907   3.858   0.183   0.475
 3908OM     OM1 3908   3.985   6.102   0.475
 3909OM     OM1 3909   3.732   6.102   0.475
 3910OM     OM1 3910   3.985   0.402   0.475
 3911OM     OM1 3911   3.732   0.402   0.475
 3912OM     OM1 3912   3.858   0.329   0.682
 3913OM     OM1 3913   3.858   0.475   0.888
 3914OM     OM1 3914   3.985   0.256   0.888
 3915OM     OM1 3915   3.732   0.256   0.888
 3916OM     OM1 3916   3.605   0.183   1.095
 3917OM     OM1 3917   3.605   0.036   0.888
 3918OM     OM1 3918   3.985   0.110   1.302
 3919OM     OM1 3919   3.732   0.110   1.302
 3920OM     OM1 3920   3.858   0.036   1.508
 3921OM     OM1 3921   3.858   6.029   1.302
 3922OM     OM1 3922   3.605   0.329   1.302
 3923OM     OM1 3923   3.858   0.183   1.715
 3924OM     OM1 3924   3.985   6.102   1.715
 3925OM     OM1 3925   3.732   6.102   1.715
 3926OM     OM1 3926   3.985   0.402   1.715
 3927OM     OM1 3927   3.732   0.402   1.715
 3928OM     OM1 3928   3.858   0.329   1.922
 3929OM     OM1 3929   3.858   0.475   2.128
 3930OM     OM1 3930   3.985   0.256   2.128
 3931OM     OM1 3931   3.732   0.256   2.128
 3932OM     OM1 3932   3.605   0.036   2.128
 3933OM     OM1 3933   3.605   0.183   2.335
 3934OM     OM1 3934   3.985   0.110   2.542
 3935OM     OM1 3935   3.732   0.110   2.542
 3936OM     OM1 3936   3.858   6.029   2.542
 3937OM     OM1 3937   3.858   0.036   2.748
 3938OM     OM1 3938   3.605   0.329   2.542
 3939OM     OM1 3939   3.858   0.183   2.955
 3940OM     OM1 3940   3.985   6.102   2.955
 3941OM     OM1 3941   3.732   6.102   2.955
 3942OM     OM1 3942   3.985   0.402   2.955
 3943OM     OM1 3943   3.732   0.402   2.955
 3944OM     OM1 3944   3.858   0.329   3.162
 3945OM     OM1 3945   3.858   0.475   3.368
 3946OM     OM1 3946   3.985   0.256   3.368
 3947OM     OM1 3947   3.732   0.256   3.368
 3948OM     OM1 3948   3.605   0.036   3.368
 3949OM     OM1 3949   3.605   0.183   3.575
 3950OM     OM1 3950   3.985   0.110   3.782
 3951OM     OM1 3951   3.732   0.110   3.782
 3952OM     OM1 3952   3.858   6.029   3.782
 3953OM     OM1 3953   3.858   0.036   3.988
 3954OM     OM1 3954   3.605   0.329   3.782
 3955OM     OM1 3955   3.858   0.183   4.195
 3956OM     OM1 3956   3.985   6.102   4.195
 3957OM     OM1 3957   3.732   6.102   4.195
 3958OM     OM1 3958   3.985   0.402   4.195
 3959OM     OM1 3959   3.732   0.402   4.195
 3960OM     OM1 3960   3.858   0.329   4.402
 3961OM     OM1 3961   3.858   0.475   4.608
 3962OM     OM1 3962   3.985   0.256   4.608
 3963OM     OM1 3963   3.732   0.256   4.608
 3964OM     OM1 3964   3.605   0.036   4.608
 3965OM     OM1 3965   3.605   0.183   4.815
 3966OM     OM1 3966   3.985   0.110   5.022
 3967OM     OM1 3967   3.732   0.110   5.022
 3968OM     OM1 3968   3.858   6.029   5.022
 3969OM     OM1 3969   3.858   0.036   5.228
 3970OM     OM1 3970   3.605   0.329   5.022
 3971OM     OM1 3971   3.858   0.183   5.435
 3972OM     OM1 3972   3.985   6.102   5.435
 3973OM     OM1 3973   3.732   6.102   5.435
 3974OM     OM1 3974   3.985   0.402   5.435
 3975OM     OM1 3975   3.732   0.402   5.435
 3976OM     OM1 3976   3.858   0.329   5.642
 3977OM     OM1 3977   3.858   0.475   5.848
 3978OM     OM1 3978   3.985   0.256   5.848
 3979OM     OM1 3979   3.732   0.256   5.848
 3980OM     OM1 3980   3.605   0.036   5.848
 3981OM     OM1 3981   3.858   0.621   6.055
 3982OM     OM1 3982   3.985   0.548   0.062
 3983OM     OM1 3983   3.732   0.548   0.062
 3984OM     OM1 3984   3.858   0.767   0.062
 3985OM     OM1 3985   3.605   0.475   0.268
 3986OM     OM1 3986   3.605   0.621   0.475
 3987OM     OM1 3987   3.732   0.840   0.475
 3988OM     OM1 3988   3.605   0.767   0.682
 3989OM     OM1 3989   3.858   0.621   1.095
 3990OM     OM1 3990   3.985   0.694   0.888
 3991OM     OM1 3991   3.732   0.694   0.888
 3992OM     OM1 3992   3.605   0.913   0.888
 3993OM     OM1 3993   3.985   0.548   1.302
 3994OM     OM1 3994   3.732   0.548   1.302
 3995OM     OM1 3995   3.858   0.767   1.302
 3996OM     OM1 3996   3.605   0.475   1.508
 3997OM     OM1 3997   3.605   0.621   1.715
 3998OM     OM1 3998   3.732   0.840   1.715
 3999OM     OM1 3999   3.605   0.767   1.922
 4000OM     OM1 4000   3.985   0.694   2.128
 4001OM     OM1 4001   3.732   0.694   2.128
 4002OM     OM1 4002   3.858   0.621   2.335
 4003OM     OM1 4003   3.605   0.913   2.128
 4004OM     OM1 4004   3.985   0.548   2.542
 4005OM     OM1 4005   3.732   0.548   2.542
 4006OM     OM1 4006   3.858   0.767   2.542
 4007OM     OM1 4007   3.605   0.475   2.748
 4008OM     OM1 4008   3.605   0.621   2.955
 4009OM     OM1 4009   3.732   0.840   2.955
 4010OM     OM1 4010   3.605   0.767   3.162
 4011OM     OM1 4011   3.985   0.694   3.368
 4012OM     OM1 4012   3.732   0.694   3.368
 4013OM     OM1 4013   3.858   0.621   3.575
 4014OM     OM1 4014   3.605   0.913   3.368
 4015OM     OM1 4015   3.985   0.548   3.782
 4016OM     OM1 4016   3.732   0.548   3.782
 4017OM     OM1 4017   3.858   0.767   3.782
 4018OM     OM1 4018   3.605   0.475   3.988
 4019OM     OM1 4019   3.605   0.621   4.195
 4020OM     OM1 4020   3.732   0.840   4.195
 4021OM     OM1 4021   3.605   0.767   4.402
 4022OM     OM1 4022   3.985   0.694   4.608
 4023OM     OM1 4023   3.732   0.694   4.608
 4024OM     OM1 4024   3.858   0.621   4.815
 4025OM     OM1 4025   3.605   0.913   4.608
 4026OM     OM1 4026   3.985   0.548   5.022
 4027OM     OM1 4027   3.732   0.548   5.022
 4028OM     OM1 4028   3.858   0.767   5.022
 4029OM     OM1 4029   3.605   0.475   5.228
 4030OM     OM1 4030   3.605   0.621   5.435
 4031OM     OM1 4031   3.732   0.840   5.435
 4032OM     OM1 4032   3.605   0.767   5.642
 4033OM     OM1 4033   3.985   0.694   5.848
 4034OM     OM1 4034   3.732   0.694   5.848
 4035OM     OM1 4035   3.605   0.913   5.848
 4036OM     OM1 4036   3.985   0.987   0.062
 4037OM     OM1 4037   3.732   0.987   0.062
 4038OM     OM1 4038   3.858   0.913   0.268
 4039OM     OM1 4039   3.605   1.060   6.055
 4040OM     OM1 4040   3.985   0.840   0.475
 4041OM     OM1 4041   3.858   1.060   0.475
 4042OM     OM1 4042   3.605   1.060   1.095
 4043OM     OM1 4043   3.732   1.133   0.888
 4044OM     OM1 4044   3.985   0.987   1.302
 4045OM     OM1 4045   3.732   0.987   1.302
 4046OM     OM1 4046   3.858   0.913   1.508
 4047OM     OM1 4047   3.985   0.840   1.715
 4048OM     OM1 4048   3.858   1.060   1.715
 4049OM     OM1 4049   3.732   1.133   2.128
 4050OM     OM1 4050   3.605   1.060   2.335
 4051OM     OM1 4051   3.985   0.987   2.542
 4052OM     OM1 4052   3.732   0.987   2.542
 4053OM     OM1 4053   3.858   0.913   2.748
 4054OM     OM1 4054   3.985   0.840   2.955
 4055OM     OM1 4055   3.858   1.060   2.955
 4056OM     OM1 4056   3.732   1.133   3.368
 4057OM     OM1 4057   3.605   1.060   3.575
 4058OM     OM1 4058   3.985   0.987   3.782
 4059OM     OM1 4059   3.732   0.987   3.782
 4060OM     OM1 4060   3.858   0.913   3.988
 4061OM     OM1 4061   3.985   0.840   4.195
 4062OM     OM1 4062   3.858   1.060   4.195
 4063OM     OM1 4063   3.732   1.133   4.608
 4064OM     OM1 4064   3.605   1.060   4.815
 4065OM     OM1 4065   3.985   0.987   5.022
 4066OM     OM1 4066   3.732   0.987   5.022
 4067OM     OM1 4067   3.858   0.913   5.228
 4068OM     OM1 4068   3.985   0.840   5.435
 4069OM     OM1 4069   3.858   1.060   5.435
 4070OM     OM1 4070   3.732   1.133   5.848
 4071OM     OM1 4071   3.985   1.279   0.475
 4072OM     OM1 4072   3.858   1.206   0.682
 4073OM     OM1 4073   3.985   1.133   0.888
 4074OM     OM1 4074   3.985   1.279   1.715
 4075OM     OM1 4075   3.858   1.206   1.922
 4076OM     OM1 4076   3.985   1.133   2.128
 4077OM     OM1 4077   3.985   1.279   2.955
 4078OM     OM1 4078   3.858   1.206   3.162
 4079OM     OM1 4079   3.985   1.133   3.368
 4080OM     OM1 4080   3.985   1.279   4.195
 4081OM     OM1 4081   3.858   1.206   4.402
 4082OM     OM1 4082   3.985   1.133   4.608
 4083OM     OM1 4083   3.985   1.279   5.435
 4084OM     OM1 4084   3.858   1.206   5.642
 4085OM     OM1 4085   3.985   1.133   5.848
 4086OM     OM1 4086   3.858   5.006   6.055
 4087OM     OM1 4087   3.985   4.933   0.062
 4088OM     OM1 4088   3.732   4.933   0.062
 4089OM     OM1 4089   3.858   5.152   0.062
 4090OM     OM1 4090   3.605   4.860   0.268
 4091OM     OM1 4091   3.605   5.006   0.475
 4092OM     OM1 4092   3.732   5.225   0.475
 4093OM     OM1 4093   3.605   5.152   0.682
 4094OM     OM1 4094   3.858   5.006   1.095
 4095OM     OM1 4095   3.985   5.079   0.888
 4096OM     OM1 4096   3.732   5.079   0.888
 4097OM     OM1 4097   3.605   5.299   0.888
 4098OM     OM1 4098   3.985   4.933   1.302
 4099OM     OM1 4099   3.732   4.933   1.302
 4100OM     OM1 4100   3.858   5.152   1.302
 4101OM     OM1 4101   3.605   4.860   1.508
 4102OM     OM1 4102   3.605   5.006   1.715
 4103OM     OM1 4103   3.732   5.225   1.715
 4104OM     OM1 4104   3.605   5.152   1.922
 4105OM     OM1 4105   3.985   5.079   2.128
 4106OM     OM1 4106   3.732   5.079   2.128
 4107OM     OM1 4107   3.858   5.006   2.335
 4108OM     OM1 4108   3.605   5.299   2.128
 4109OM     OM1 4109   3.985   4.933   2.542
 4110OM     OM1 4110   3.732   4.933   2.542
 4111OM     OM1 4111   3.858   5.152   2.542
 4112OM     OM1 4112   3.605   4.860   2.748
 4113OM     OM1 4113   3.605   5.006   2.955
 4114OM     OM1 4114   3.732   5.225   2.955
 4115OM     OM1 4115   3.605   5.152   3.162
 4116OM     OM1 4116   3.985   5.079   3.368
 4117OM     OM1 4117   3.732   5.079   3.368
 4118OM     OM1 4118   3.858   5.006   3.575
 4119OM     OM1 4119   3.605   5.299   3.368
 4120OM     OM1 4120   3.985   4.933   3.782
 4121OM     OM1 4121   3.732   4.933   3.782
 4122OM     OM1 4122   3.858   5.152   3.782
 4123OM     OM1 4123   3.605   4.860   3.988
 4124OM     OM1 4124   3.605   5.006   4.195
 4125OM     OM1 4125   3.732   5.225   4.195
 4126OM     OM1 4126   3.605   5.152   4.402
 4127OM     OM1 4127   3.985   5.079   4.608
 4128OM     OM1 4128   3.732   5.079   4.608
 4129OM     OM1 4129   3.858   5.006   4.815
 4130OM     OM1 4130   3.605   5.299   4.608
 4131OM     OM1 4131   3.985   4.933   5.022
 4132OM     OM1 4132   3.732   4.933   5.022
 4133OM     OM1 4133   3.858   5.152   5.022
 4134OM     OM1 4134   3.605   4.860   5.228
 4135OM     OM1 4135   3.605   5.006   5.435
 4136OM     OM1 4136   3.732   5.225   5.435
 4137OM     OM1 4137   3.605   5.152   5.642
 4138OM     OM1 4138   3.985   5.079   5.848
 4139OM     OM1 4139   3.732   5.079   5.848
 4140OM     OM1 4140   3.605   5.299   5.848
 4141OM     OM1 4141   3.985   5.372   0.062
 4142OM     OM1 4142   3.732   5.372   0.062
 4143OM     OM1 4143   3.858   5.299   0.268
 4144OM     OM1 4144   3.605   5.445   6.055
 4145OM     OM1 4145   3.605   5.591   0.062
 4146OM     OM1 4146   3.985   5.225   0.475
 4147OM     OM1 4147   3.858   5.445   0.475
 4148OM     OM1 4148   3.985   5.664   0.475
 4149OM     OM1 4149   3.732   5.664   0.475
 4150OM     OM1 4150   3.858   5.591   0.682
 4151OM     OM1 4151   3.858   5.737   0.888
 4152OM     OM1 4152   3.985   5.518   0.888
 4153OM     OM1 4153   3.732   5.518   0.888
 4154OM     OM1 4154   3.605   5.445   1.095
 4155OM     OM1 4155   3.985   5.372   1.302
 4156OM     OM1 4156   3.732   5.372   1.302
 4157OM     OM1 4157   3.858   5.299   1.508
 4158OM     OM1 4158   3.605   5.591   1.302
 4159OM     OM1 4159   3.985   5.225   1.715
 4160OM     OM1 4160   3.858   5.445   1.715
 4161OM     OM1 4161   3.985   5.664   1.715
 4162OM     OM1 4162   3.732   5.664   1.715
 4163OM     OM1 4163   3.858   5.591   1.922
 4164OM     OM1 4164   3.858   5.737   2.128
 4165OM     OM1 4165   3.985   5.518   2.128
 4166OM     OM1 4166   3.732   5.518   2.128
 4167OM     OM1 4167   3.605   5.445   2.335
 4168OM     OM1 4168   3.985   5.372   2.542
 4169OM     OM1 4169   3.732   5.372   2.542
 4170OM     OM1 4170   3.858   5.299   2.748
 4171OM     OM1 4171   3.605   5.591   2.542
 4172OM     OM1 4172   3.985   5.225   2.955
 4173OM     OM1 4173   3.858   5.445   2.955
 4174OM     OM1 4174   3.985   5.664   2.955
 4175OM     OM1 4175   3.732   5.664   2.955
 4176OM     OM1 4176   3.858   5.591   3.162
 4177OM     OM1 4177   3.858   5.737   3.368
 4178OM     OM1 4178   3.985   5.518   3.368
 4179OM     OM1 4179   3.732   5.518   3.368
 4180OM     OM1 4180   3.605   5.445   3.575
 4181OM     OM1 4181   3.985   5.372   3.782
 4182OM     OM1 4182   3.732   5.372   3.782
 4183OM     OM1 4183   3.858   5.299   3.988
 4184OM     OM1 4184   3.605   5.591   3.782
 4185OM     OM1 4185   3.985   5.225   4.195
 4186OM     OM1 4186   3.858   5.445   4.195
 4187OM     OM1 4187   3.985   5.664   4.195
 4188OM     OM1 4188   3.732   5.664   4.195
 4189OM     OM1 4189   3.858   5.591   4.402
 4190OM     OM1 4190   3.858   5.737   4.608
 4191OM     OM1 4191   3.985   5.518   4.608
 4192OM     OM1 4192   3.732   5.518   4.608
 4193OM     OM1 4193   3.605   5.445   4.815
 4194OM     OM1 4194   3.985   5.372   5.022
 4195OM     OM1 4195   3.732   5.372   5.022
 4196OM     OM1 4196   3.858   5.299   5.228
 4197OM     OM1 4197   3.605   5.591   5.022
 4198OM     OM1 4198   3.985   5.225   5.435
 4199OM     OM1 4199   3.858   5.445   5.435
 4200OM     OM1 4200   3.985   5.664   5.435
 4201OM     OM1 4201   3.732   5.664   5.435
 4202OM     OM1 4202   3.858   5.591   5.642
 4203OM     OM1 4203   3.858   5.737   5.848
 4204OM     OM1 4204   3.985   5.518   5.848
 4205OM     OM1 4205   3.732   5.518   5.848
 4206OM     OM1 4206   3.858   5.883   6.055
 4207OM     OM1 4207   3.985   5.810   0.062
 4208OM     OM1 4208   3.732   5.810   0.062
 4209OM     OM1 4209   3.605   5.737   0.268
 4210OM     OM1 4210   3.605   5.883   0.475
 4211OM     OM1 4211   3.605   6.029   0.682
 4212OM     OM1 4212   3.858   5.883   1.095
 4213OM     OM1 4213   3.985   5.956   0.888
 4214OM     OM1 4214   3.732   5.956   0.888
 4215OM     OM1 4215   3.985   5.810   1.302
 4216OM     OM1 4216   3.732   5.810   1.302
 4217OM     OM1 4217   3.605   5.737   1.508
 4218OM     OM1 4218   3.605   5.883   1.715
 4219OM     OM1 4219   3.605   6.029   1.922
 4220OM     OM1 4220   3.985   5.956   2.128
 4221OM     OM1 4221   3.732   5.956   2.128
 4222OM     OM1 4222   3.858   5.883   2.335
 4223OM     OM1 4223   3.985   5.810   2.542
 4224OM     OM1 4224   3.732   5.810   2.542
 4225OM     OM1 4225   3.605   5.737   2.748
 4226OM     OM1 4226   3.605   5.883   2.955
 4227OM     OM1 4227   3.605   6.029   3.162
 4228OM     OM1 4228   3.985   5.956   3.368
 4229OM     OM1 4229   3.732   5.956   3.368
 4230OM     OM1 4230   3.858   5.883   3.575
 4231OM     OM1 4231   3.985   5.810   3.782
 4232OM     OM1 4232   3.732   5.810   3.782
 4233OM     OM1 4233   3.605   5.737   3.988
 4234OM     OM1 4234   3.605   5.883   4.195
 4235OM     OM1 4235   3.605   6.029   4.402
 4236OM     OM1 4236   3.985   5.956   4.608
 4237OM     OM1 4237   3.732   5.956   4.608
 4238OM     OM1 4238   3.858   5.883   4.815
 4239OM     OM1 4239   3.985   5.810   5.022
 4240OM     OM1 4240   3.732   5.810   5.022
 4241OM     OM1 4241   3.605   5.737   5.228
 4242OM     OM1 4242   3.605   5.883   5.435
 4243OM     OM1 4243   3.605   6.029   5.642
 4244OM     OM1 4244   3.985   5.956   5.848
 4245OM     OM1 4245   3.732   5.956   5.848
 4246OM     OM1 4246   4.238   0.110   0.062
 4247OM     OM1 4247   4.364   0.036   0.268
 4248OM     OM1 4248   4.491   0.110   0.062
 4249OM     OM1 4249   4.364   6.029   0.062
 4250OM     OM1 4250   4.111   0.183   6.055
 4251OM     OM1 4251   4.111   0.329   0.062
 4252OM     OM1 4252   4.364   0.183   0.475
 4253OM     OM1 4253   4.238   6.102   0.475
 4254OM     OM1 4254   4.491   6.102   0.475
 4255OM     OM1 4255   4.238   0.402   0.475
 4256OM     OM1 4256   4.491   0.402   0.475
 4257OM     OM1 4257   4.364   0.329   0.682
 4258OM     OM1 4258   4.364   0.475   0.888
 4259OM     OM1 4259   4.238   0.256   0.888
 4260OM     OM1 4260   4.491   0.256   0.888
 4261OM     OM1 4261   4.111   0.183   1.095
 4262OM     OM1 4262   4.111   0.036   0.888
 4263OM     OM1 4263   4.238   0.110   1.302
 4264OM     OM1 4264   4.364   0.036   1.508
 4265OM     OM1 4265   4.491   0.110   1.302
 4266OM     OM1 4266   4.364   6.029   1.302
 4267OM     OM1 4267   4.111   0.329   1.302
 4268OM     OM1 4268   4.364   0.183   1.715
 4269OM     OM1 4269   4.238   6.102   1.715
 4270OM     OM1 4270   4.491   6.102   1.715
 4271OM     OM1 4271   4.238   0.402   1.715
 4272OM     OM1 4272   4.491   0.402   1.715
 4273OM     OM1 4273   4.364   0.329   1.922
 4274OM     OM1 4274   4.364   0.475   2.128
 4275OM     OM1 4275   4.238   0.256   2.128
 4276OM     OM1 4276   4.491   0.256   2.128
 4277OM     OM1 4277   4.111   0.036   2.128
 4278OM     OM1 4278   4.111   0.183   2.335
 4279OM     OM1 4279   4.238   0.110   2.542
 4280OM     OM1 4280   4.491   0.110   2.542
 4281OM     OM1 4281   4.364   6.029   2.542
 4282OM     OM1 4282   4.364   0.036   2.748
 4283OM     OM1 4283   4.111   0.329   2.542
 4284OM     OM1 4284   4.364   0.183   2.955
 4285OM     OM1 4285   4.238   6.102   2.955
 4286OM     OM1 4286   4.491   6.102   2.955
 4287OM     OM1 4287   4.238   0.402   2.955
 4288OM     OM1 4288   4.491   0.402   2.955
 4289OM     OM1 4289   4.364   0.329   3.162
 4290OM     OM1 4290   4.364   0.475   3.368
 4291OM     OM1 4291   4.238   0.256   3.368
 4292OM     OM1 4292   4.491   0.256   3.368
 4293OM     OM1 4293   4.111   0.036   3.368
 4294OM     OM1 4294   4.111   0.183   3.575
 4295OM     OM1 4295   4.238   0.110   3.782
 4296OM     OM1 4296   4.491   0.110   3.782
 4297OM     OM1 4297   4.364   6.029   3.782
 4298OM     OM1 4298   4.364   0.036   3.988
 4299OM     OM1 4299   4.111   0.329   3.782
 4300OM     OM1 4300   4.364   0.183   4.195
 4301OM     OM1 4301   4.238   6.102   4.195
 4302OM     OM1 4302   4.491   6.102   4.195
 4303OM     OM1 4303   4.238   0.402   4.195
 4304OM     OM1 4304   4.491   0.402   4.195
 4305OM     OM1 4305   4.364   0.329   4.402
 4306OM     OM1 4306   4.364   0.475   4.608
 4307OM     OM1 4307   4.238   0.256   4.608
 4308OM     OM1 4308   4.491   0.256   4.608
 4309OM     OM1 4309   4.111   0.036   4.608
 4310OM     OM1 4310   4.111   0.183   4.815
 4311OM     OM1 4311   4.238   0.110   5.022
 4312OM     OM1 4312   4.491   0.110   5.022
 4313OM     OM1 4313   4.364   6.029   5.022
 4314OM     OM1 4314   4.364   0.036   5.228
 4315OM     OM1 4315   4.111   0.329   5.022
 4316OM     OM1 4316   4.364   0.183   5.435
 4317OM     OM1 4317   4.238   6.102   5.435
 4318OM     OM1 4318   4.491   6.102   5.435
 4319OM     OM1 4319   4.238   0.402   5.435
 4320OM     OM1 4320   4.491   0.402   5.435
 4321OM     OM1 4321   4.364   0.329   5.642
 4322OM     OM1 4322   4.364   0.475   5.848
 4323OM     OM1 4323   4.238   0.256   5.848
 4324OM     OM1 4324   4.491   0.256   5.848
 4325OM     OM1 4325   4.111   0.036   5.848
 4326OM     OM1 4326   4.364   0.621   6.055
 4327OM     OM1 4327   4.238   0.548   0.062
 4328OM     OM1 4328   4.364   0.767   0.062
 4329OM     OM1 4329   4.491   0.548   0.062
 4330OM     OM1 4330   4.111   0.475   0.268
 4331OM     OM1 4331   4.111   0.621   0.475
 4332OM     OM1 4332   4.238   0.840   0.475
 4333OM     OM1 4333   4.111   0.767   0.682
 4334OM     OM1 4334   4.364   0.621   1.095
 4335OM     OM1 4335   4.238   0.694   0.888
 4336OM     OM1 4336   4.491   0.694   0.888
 4337OM     OM1 4337   4.111   0.913   0.888
 4338OM     OM1 4338   4.238   0.548   1.302
 4339OM     OM1 4339   4.364   0.767   1.302
 4340OM     OM1 4340   4.491   0.548   1.302
 4341OM     OM1 4341   4.111   0.475   1.508
 4342OM     OM1 4342   4.111   0.621   1.715
 4343OM     OM1 4343   4.238   0.840   1.715
 4344OM     OM1 4344   4.111   0.767   1.922
 4345OM     OM1 4345   4.238   0.694   2.128
 4346OM     OM1 4346   4.491   0.694   2.128
 4347OM     OM1 4347   4.364   0.621   2.335
 4348OM     OM1 4348   4.111   0.913   2.128
 4349OM     OM1 4349   4.238   0.548   2.542
 4350OM     OM1 4350   4.364   0.767   2.542
 4351OM     OM1 4351   4.491   0.548   2.542
 4352OM     OM1 4352   4.111   0.475   2.748
 4353OM     OM1 4353   4.111   0.621   2.955
 4354OM     OM1 4354   4.238   0.840   2.955
 4355OM     OM1 4355   4.111   0.767   3.162
 4356OM     OM1 4356   4.238   0.694   3.368
 4357OM     OM1 4357   4.491   0.694   3.368
 4358OM     OM1 4358   4.364   0.621   3.575
 4359OM     OM1 4359   4.111   0.913   3.368
 4360OM     OM1 4360   4.238   0.548   3.782
 4361OM     OM1 4361   4.364   0.767   3.782
 4362OM     OM1 4362   4.491   0.548   3.782
 4363OM     OM1 4363   4.111   0.475   3.988
 4364OM     OM1 4364   4.111   0.621   4.195
 4365OM     OM1 4365   4.238   0.840   4.195
 4366OM     OM1 4366   4.111   0.767   4.402
 4367OM     OM1 4367   4.238   0.694   4.608
 4368OM     OM1 4368   4.491   0.694   4.608
 4369OM     OM1 4369   4.364   0.621   4.815
 4370OM     OM1 4370   4.111   0.913   4.608
 4371OM     OM1 4371   4.238   0.548   5.022
 4372OM     OM1 4372   4.364   0.767   5.022
 4373OM     OM1 4373   4.491   0.548   5.022
 4374OM     OM1 4374   4.111   0.475   5.228
 4375OM     OM1 4375   4.111   0.621   5.435
 4376OM     OM1 4376   4.238   0.840   5.435
 4377OM     OM1 4377   4.111   0.767   5.642
 4378OM     OM1 4378   4.238   0.694   5.848
 4379OM     OM1 4379   4.491   0.694   5.848
 4380OM     OM1 4380   4.111   0.913   5.848
 4381OM     OM1 4381   4.238   0.987   0.062
 4382OM     OM1 4382   4.364   0.913   0.268
 4383OM     OM1 4383   4.491   0.987   0.062
 4384OM     OM1 4384   4.111   1.060   6.055
 4385OM     OM1 4385   4.111   1.206   0.062
 4386OM     OM1 4386   4.364   1.060   0.475
 4387OM     OM1 4387   4.491   0.840   0.475
 4388OM     OM1 4388   4.111   1.060   1.095
 4389OM     OM1 4389   4.238   1.133   0.888
 4390OM     OM1 4390   4.238   0.987   1.302
 4391OM     OM1 4391   4.364   0.913   1.508
 4392OM     OM1 4392   4.491   0.987   1.302
 4393OM     OM1 4393   4.111   1.206   1.302
 4394OM     OM1 4394   4.364   1.060   1.715
 4395OM     OM1 4395   4.491   0.840   1.715
 4396OM     OM1 4396   4.238   1.133   2.128
 4397OM     OM1 4397   4.111   1.060   2.335
 4398OM     OM1 4398   4.238   0.987   2.542
 4399OM     OM1 4399   4.491   0.987   2.542
 4400OM     OM1 4400   4.364   0.913   2.748
 4401OM     OM1 4401   4.111   1.206   2.542
 4402OM     OM1 4402   4.364   1.060   2.955
 4403OM     OM1 4403   4.491   0.840   2.955
 4404OM     OM1 4404   4.238   1.133   3.368
 4405OM     OM1 4405   4.111   1.060   3.575
 4406OM     OM1 4406   4.238   0.987   3.782
 4407OM     OM1 4407   4.491   0.987   3.782
 4408OM     OM1 4408   4.364   0.913   3.988
 4409OM     OM1 4409   4.111   1.206   3.782
 4410OM     OM1 4410   4.364   1.060   4.195
 4411OM     OM1 4411   4.491   0.840   4.195
 4412OM     OM1 4412   4.238   1.133   4.608
 4413OM     OM1 4413   4.111   1.060   4.815
 4414OM     OM1 4414   4.238   0.987   5.022
 4415OM     OM1 4415   4.491   0.987   5.022
 4416OM     OM1 4416   4.364   0.913   5.228
 4417OM     OM1 4417   4.111   1.206   5.022
 4418OM     OM1 4418   4.364   1.060   5.435
 4419OM     OM1 4419   4.491   0.840   5.435
 4420OM     OM1 4420   4.238   1.133   5.848
 4421OM     OM1 4421   4.364   1.498   6.055
 4422OM     OM1 4422   4.238   1.425   0.062
 4423OM     OM1 4423   4.491   1.425   0.062
 4424OM     OM1 4424   4.111   1.352   0.268
 4425OM     OM1 4425   4.238   1.279   0.475
 4426OM     OM1 4426   4.364   1.206   0.682
 4427OM     OM1 4427   4.491   1.279   0.475
 4428OM     OM1 4428   4.364   1.498   1.095
 4429OM     OM1 4429   4.364   1.352   0.888
 4430OM     OM1 4430   4.491   1.571   0.888
 4431OM     OM1 4431   4.491   1.133   0.888
 4432OM     OM1 4432   4.238   1.425   1.302
 4433OM     OM1 4433   4.491   1.425   1.302
 4434OM     OM1 4434   4.111   1.352   1.508
 4435OM     OM1 4435   4.238   1.279   1.715
 4436OM     OM1 4436   4.364   1.206   1.922
 4437OM     OM1 4437   4.491   1.279   1.715
 4438OM     OM1 4438   4.364   1.352   2.128
 4439OM     OM1 4439   4.491   1.571   2.128
 4440OM     OM1 4440   4.364   1.498   2.335
 4441OM     OM1 4441   4.491   1.133   2.128
 4442OM     OM1 4442   4.238   1.425   2.542
 4443OM     OM1 4443   4.491   1.425   2.542
 4444OM     OM1 4444   4.111   1.352   2.748
 4445OM     OM1 4445   4.238   1.279   2.955
 4446OM     OM1 4446   4.491   1.279   2.955
 4447OM     OM1 4447   4.364   1.206   3.162
 4448OM     OM1 4448   4.364   1.352   3.368
 4449OM     OM1 4449   4.491   1.571   3.368
 4450OM     OM1 4450   4.364   1.498   3.575
 4451OM     OM1 4451   4.491   1.133   3.368
 4452OM     OM1 4452   4.238   1.425   3.782
 4453OM     OM1 4453   4.491   1.425   3.782
 4454OM     OM1 4454   4.111   1.352   3.988
 4455OM     OM1 4455   4.238   1.279   4.195
 4456OM     OM1 4456   4.491   1.279   4.195
 4457OM     OM1 4457   4.364   1.206   4.402
 4458OM     OM1 4458   4.364   1.352   4.608
 4459OM     OM1 4459   4.491   1.571   4.608
 4460OM     OM1 4460   4.364   1.498   4.815
 4461OM     OM1 4461   4.491   1.133   4.608
 4462OM     OM1 4462   4.238   1.425   5.022
 4463OM     OM1 4463   4.491   1.425   5.022
 4464OM     OM1 4464   4.111   1.352   5.228
 4465OM     OM1 4465   4.238   1.279   5.435
 4466OM     OM1 4466   4.491   1.279   5.435
 4467OM     OM1 4467   4.364   1.206   5.642
 4468OM     OM1 4468   4.364   1.352   5.848
 4469OM     OM1 4469   4.491   1.571   5.848
 4470OM     OM1 4470   4.491   1.133   5.848
 4471OM     OM1 4471   4.364   4.422   0.268
 4472OM     OM1 4472   4.491   4.495   0.062
 4473OM     OM1 4473   4.364   4.568   0.475
 4474OM     OM1 4474   4.491   4.348   0.475
 4475OM     OM1 4475   4.238   4.787   0.475
 4476OM     OM1 4476   4.364   4.714   0.682
 4477OM     OM1 4477   4.491   4.787   0.475
 4478OM     OM1 4478   4.364   4.860   0.888
 4479OM     OM1 4479   4.491   4.641   0.888
 4480OM     OM1 4480   4.364   4.422   1.508
 4481OM     OM1 4481   4.491   4.495   1.302
 4482OM     OM1 4482   4.364   4.568   1.715
 4483OM     OM1 4483   4.491   4.348   1.715
 4484OM     OM1 4484   4.238   4.787   1.715
 4485OM     OM1 4485   4.364   4.714   1.922
 4486OM     OM1 4486   4.491   4.787   1.715
 4487OM     OM1 4487   4.364   4.860   2.128
 4488OM     OM1 4488   4.491   4.641   2.128
 4489OM     OM1 4489   4.491   4.495   2.542
 4490OM     OM1 4490   4.364   4.422   2.748
 4491OM     OM1 4491   4.364   4.568   2.955
 4492OM     OM1 4492   4.491   4.348   2.955
 4493OM     OM1 4493   4.238   4.787   2.955
 4494OM     OM1 4494   4.491   4.787   2.955
 4495OM     OM1 4495   4.364   4.714   3.162
 4496OM     OM1 4496   4.364   4.860   3.368
 4497OM     OM1 4497   4.491   4.641   3.368
 4498OM     OM1 4498   4.491   4.495   3.782
 4499OM     OM1 4499   4.364   4.422   3.988
 4500OM     OM1 4500   4.364   4.568   4.195
 4501OM     OM1 4501   4.491   4.348   4.195
 4502OM     OM1 4502   4.238   4.787   4.195
 4503OM     OM1 4503   4.491   4.787   4.195
 4504OM     OM1 4504   4.364   4.714   4.402
 4505OM     OM1 4505   4.364   4.860   4.608
 4506OM     OM1 4506   4.491   4.641   4.608
 4507OM     OM1 4507   4.491   4.495   5.022
 4508OM     OM1 4508   4.364   4.422   5.228
 4509OM     OM1 4509   4.364   4.568   5.435
 4510OM     OM1 4510   4.491   4.348   5.435
 4511OM     OM1 4511   4.238   4.787   5.435
 4512OM     OM1 4512   4.491   4.787   5.435
 4513OM     OM1 4513   4.364   4.714   5.642
 4514OM     OM1 4514   4.364   4.860   5.848
 4515OM     OM1 4515   4.491   4.641   5.848
 4516OM     OM1 4516   4.364   5.006   6.055
 4517OM     OM1 4517   4.238   4.933   0.062
 4518OM     OM1 4518   4.364   5.152   0.062
 4519OM     OM1 4519   4.491   4.933   0.062
 4520OM     OM1 4520   4.111   4.860   0.268
 4521OM     OM1 4521   4.111   5.006   0.475
 4522OM     OM1 4522   4.238   5.225   0.475
 4523OM     OM1 4523   4.111   5.152   0.682
 4524OM     OM1 4524   4.364   5.006   1.095
 4525OM     OM1 4525   4.238   5.079   0.888
 4526OM     OM1 4526   4.491   5.079   0.888
 4527OM     OM1 4527   4.111   5.299   0.888
 4528OM     OM1 4528   4.238   4.933   1.302
 4529OM     OM1 4529   4.364   5.152   1.302
 4530OM     OM1 4530   4.491   4.933   1.302
 4531OM     OM1 4531   4.111   4.860   1.508
 4532OM     OM1 4532   4.111   5.006   1.715
 4533OM     OM1 4533   4.238   5.225   1.715
 4534OM     OM1 4534   4.111   5.152   1.922
 4535OM     OM1 4535   4.238   5.079   2.128
 4536OM     OM1 4536   4.491   5.079   2.128
 4537OM     OM1 4537   4.364   5.006   2.335
 4538OM     OM1 4538   4.111   5.299   2.128
 4539OM     OM1 4539   4.238   4.933   2.542
 4540OM     OM1 4540   4.364   5.152   2.542
 4541OM     OM1 4541   4.491   4.933   2.542
 4542OM     OM1 4542   4.111   4.860   2.748
 4543OM     OM1 4543   4.111   5.006   2.955
 4544OM     OM1 4544   4.238   5.225   2.955
 4545OM     OM1 4545   4.111   5.152   3.162
 4546OM     OM1 4546   4.238   5.079   3.368
 4547OM     OM1 4547   4.491   5.079   3.368
 4548OM     OM1 4548   4.364   5.006   3.575
 4549OM     OM1 4549   4.111   5.299   3.368
 4550OM     OM1 4550   4.238   4.933   3.782
 4551OM     OM1 4551   4.364   5.152   3.782
 4552OM     OM1 4552   4.491   4.933   3.782
 4553OM     OM1 4553   4.111   4.860   3.988
 4554OM     OM1 4554   4.111   5.006   4.195
 4555OM     OM1 4555   4.238   5.225   4.195
 4556OM     OM1 4556   4.111   5.152   4.402
 4557OM     OM1 4557   4.238   5.079   4.608
 4558OM     OM1 4558   4.491   5.079   4.608
 4559OM     OM1 4559   4.364   5.006   4.815
 4560OM     OM1 4560   4.111   5.299   4.608
 4561OM     OM1 4561   4.238   4.933   5.022
 4562OM     OM1 4562   4.364   5.152   5.022
 4563OM     OM1 4563   4.491   4.933   5.022
 4564OM     OM1 4564   4.111   4.860   5.228
 4565OM     OM1 4565   4.111   5.006   5.435
 4566OM     OM1 4566   4.238   5.225   5.435
 4567OM     OM1 4567   4.111   5.152   5.642
 4568OM     OM1 4568   4.238   5.079   5.848
 4569OM     OM1 4569   4.491   5.079   5.848
 4570OM     OM1 4570   4.111   5.299   5.848
 4571OM     OM1 4571   4.238   5.372   0.062
 4572OM     OM1 4572   4.364   5.299   0.268
 4573OM     OM1 4573   4.491   5.372   0.062
 4574OM     OM1 4574   4.111   5.445   6.055
 4575OM     OM1 4575   4.111   5.591   0.062
 4576OM     OM1 4576   4.364   5.445   0.475
 4577OM     OM1 4577   4.491   5.225   0.475
 4578OM     OM1 4578   4.238   5.664   0.475
 4579OM     OM1 4579   4.491   5.664   0.475
 4580OM     OM1 4580   4.364   5.591   0.682
 4581OM     OM1 4581   4.364   5.737   0.888
 4582OM     OM1 4582   4.238   5.518   0.888
 4583OM     OM1 4583   4.491   5.518   0.888
 4584OM     OM1 4584   4.111   5.445   1.095
 4585OM     OM1 4585   4.238   5.372   1.302
 4586OM     OM1 4586   4.364   5.299   1.508
 4587OM     OM1 4587   4.491   5.372   1.302
 4588OM     OM1 4588   4.111   5.591   1.302
 4589OM     OM1 4589   4.364   5.445   1.715
 4590OM     OM1 4590   4.491   5.225   1.715
 4591OM     OM1 4591   4.238   5.664   1.715
 4592OM     OM1 4592   4.491   5.664   1.715
 4593OM     OM1 4593   4.364   5.591   1.922
 4594OM     OM1 4594   4.364   5.737   2.128
 4595OM     OM1 4595   4.238   5.518   2.128
 4596OM     OM1 4596   4.491   5.518   2.128
 4597OM     OM1 4597   4.111   5.445   2.335
 4598OM     OM1 4598   4.238   5.372   2.542
 4599OM     OM1 4599   4.491   5.372   2.542
 4600OM     OM1 4600   4.364   5.299   2.748
 4601OM     OM1 4601   4.111   5.591   2.542
 4602OM     OM1 4602   4.364   5.445   2.955
 4603OM     OM1 4603   4.491   5.225   2.955
 4604OM     OM1 4604   4.238   5.664   2.955
 4605OM     OM1 4605   4.491   5.664   2.955
 4606OM     OM1 4606   4.364   5.591   3.162
 4607OM     OM1 4607   4.364   5.737   3.368
 4608OM     OM1 4608   4.238   5.518   3.368
 4609OM     OM1 4609   4.491   5.518   3.368
 4610OM     OM1 4610   4.111   5.445   3.575
 4611OM     OM1 4611   4.238   5.372   3.782
 4612OM     OM1 4612   4.491   5.372   3.782
 4613OM     OM1 4613   4.364   5.299   3.988
 4614OM     OM1 4614   4.111   5.591   3.782
 4615OM     OM1 4615   4.364   5.445   4.195
 4616OM     OM1 4616   4.491   5.225   4.195
 4617OM     OM1 4617   4.238   5.664   4.195
 4618OM     OM1 4618   4.491   5.664   4.195
 4619OM     OM1 4619   4.364   5.591   4.402
 4620OM     OM1 4620   4.364   5.737   4.608
 4621OM     OM1 4621   4.238   5.518   4.608
 4622OM     OM1 4622   4.491   5.518   4.608
 4623OM     OM1 4623   4.111   5.445   4.815
 4624OM     OM1 4624   4.238   5.372   5.022
 4625OM     OM1 4625   4.491   5.372   5.022
 4626OM     OM1 4626   4.364   5.299   5.228
 4627OM     OM1 4627   4.111   5.591   5.022
 4628OM     OM1 4628   4.364   5.445   5.435
 4629OM     OM1 4629   4.491   5.225   5.435
 4630OM     OM1 4630   4.238   5.664   5.435
 4631OM     OM1 4631   4.491   5.664   5.435
 4632OM     OM1 4632   4.364   5.591   5.642
 4633OM     OM1 4633   4.364   5.737   5.848
 4634OM     OM1 4634   4.238   5.518   5.848
 4635OM     OM1 4635   4.491   5.518   5.848
 4636OM     OM1 4636   4.364   5.883   6.055
 4637OM     OM1 4637   4.238   5.810   0.062
 4638OM     OM1 4638   4.491   5.810   0.062
 4639OM     OM1 4639   4.111   5.737   0.268
 4640OM     OM1 4640   4.111   5.883   0.475
 4641OM     OM1 4641   4.111   6.029   0.682
 4642OM     OM1 4642   4.364   5.883   1.095
 4643OM     OM1 4643   4.238   5.956   0.888
 4644OM     OM1 4644   4.491   5.956   0.888
 4645OM     OM1 4645   4.238   5.810   1.302
 4646OM     OM1 4646   4.491   5.810   1.302
 4647OM     OM1 4647   4.111   5.737   1.508
 4648OM     OM1 4648   4.111   5.883   1.715
 4649OM     OM1 4649   4.111   6.029   1.922
 4650OM     OM1 4650   4.238   5.956   2.128
 4651OM     OM1 4651   4.491   5.956   2.128
 4652OM     OM1 4652   4.364   5.883   2.335
 4653OM     OM1 4653   4.238   5.810   2.542
 4654OM     OM1 4654   4.491   5.810   2.542
 4655OM     OM1 4655   4.111   5.737   2.748
 4656OM     OM1 4656   4.111   5.883   2.955
 4657OM     OM1 4657   4.111   6.029   3.162
 4658OM     OM1 4658   4.238   5.956   3.368
 4659OM     OM1 4659   4.491   5.956   3.368
 4660OM     OM1 4660   4.364   5.883   3.575
 4661OM     OM1 4661   4.238   5.810   3.782
 4662OM     OM1 4662   4.491   5.810   3.782
 4663OM     OM1 4663   4.111   5.737   3.988
 4664OM     OM1 4664   4.111   5.883   4.195
 4665OM     OM1 4665   4.111   6.029   4.402
 4666OM     OM1 4666   4.238   5.956   4.608
 4667OM     OM1 4667   4.491   5.956   4.608
 4668OM     OM1 4668   4.364   5.883   4.815
 4669OM     OM1 4669   4.238   5.810   5.022
 4670OM     OM1 4670   4.491   5.810   5.022
 4671OM     OM1 4671   4.111   5.737   5.228
 4672OM     OM1 4672   4.111   5.883   5.435
 4673OM     OM1 4673   4.111   6.029   5.642
 4674OM     OM1 4674   4.238   5.956   5.848
 4675OM     OM1 4675   4.491   5.956   5.848
 4676OM     OM1 4676   4.617   0.183   6.055
 4677OM     OM1 4677   4.744   0.110   0.062
 4678OM     OM1 4678   4.617   0.329   0.062
 4679OM     OM1 4679   4.617   0.183   1.095
 4680OM     OM1 4680   4.744   0.256   0.888
 4681OM     OM1 4681   4.617   0.036   0.888
 4682OM     OM1 4682   4.744   0.110   1.302
 4683OM     OM1 4683   4.617   0.329   1.302
 4684OM     OM1 4684   4.744   0.256   2.128
 4685OM     OM1 4685   4.617   0.036   2.128
 4686OM     OM1 4686   4.617   0.183   2.335
 4687OM     OM1 4687   4.744   0.110   2.542
 4688OM     OM1 4688   4.617   0.329   2.542
 4689OM     OM1 4689   4.744   0.256   3.368
 4690OM     OM1 4690   4.617   0.036   3.368
 4691OM     OM1 4691   4.617   0.183   3.575
 4692OM     OM1 4692   4.744   0.110   3.782
 4693OM     OM1 4693   4.617   0.329   3.782
 4694OM     OM1 4694   4.744   0.256   4.608
 4695OM     OM1 4695   4.617   0.036   4.608
 4696OM     OM1 4696   4.617   0.183   4.815
 4697OM     OM1 4697   4.744   0.110   5.022
 4698OM     OM1 4698   4.617   0.329   5.022
 4699OM     OM1 4699   4.744   0.256   5.848
 4700OM     OM1 4700   4.617   0.036   5.848
 4701OM     OM1 4701   4.744   0.548   0.062
 4702OM     OM1 4702   4.617   0.475   0.268
 4703OM     OM1 4703   4.744   0.402   0.475
 4704OM     OM1 4704   4.617   0.621   0.475
 4705OM     OM1 4705   4.744   0.840   0.475
 4706OM     OM1 4706   4.617   0.767   0.682
 4707OM     OM1 4707   4.617   0.913   0.888
 4708OM     OM1 4708   4.744   0.694   0.888
 4709OM     OM1 4709   4.744   0.548   1.302
 4710OM     OM1 4710   4.617   0.475   1.508
 4711OM     OM1 4711   4.744   0.402   1.715
 4712OM     OM1 4712   4.617   0.621   1.715
 4713OM     OM1 4713   4.744   0.840   1.715
 4714OM     OM1 4714   4.617   0.767   1.922
 4715OM     OM1 4715   4.617   0.913   2.128
 4716OM     OM1 4716   4.744   0.694   2.128
 4717OM     OM1 4717   4.744   0.548   2.542
 4718OM     OM1 4718   4.617   0.475   2.748
 4719OM     OM1 4719   4.744   0.402   2.955
 4720OM     OM1 4720   4.617   0.621   2.955
 4721OM     OM1 4721   4.744   0.840   2.955
 4722OM     OM1 4722   4.617   0.767   3.162
 4723OM     OM1 4723   4.617   0.913   3.368
 4724OM     OM1 4724   4.744   0.694   3.368
 4725OM     OM1 4725   4.744   0.548   3.782
 4726OM     OM1 4726   4.617   0.475   3.988
 4727OM     OM1 4727   4.744   0.402   4.195
 4728OM     OM1 4728   4.617   0.621   4.195
 4729OM     OM1 4729   4.744   0.840   4.195
 4730OM     OM1 4730   4.617   0.767   4.402
 4731OM     OM1 4731   4.617   0.913   4.608
 4732OM     OM1 4732   4.744   0.694   4.608
 4733OM     OM1 4733   4.744   0.548   5.022
 4734OM     OM1 4734   4.617   0.475   5.228
 4735OM     OM1 4735   4.744   0.402   5.435
 4736OM     OM1 4736   4.617   0.621   5.435
 4737OM     OM1 4737   4.744   0.840   5.435
 4738OM     OM1 4738   4.617   0.767   5.642
 4739OM     OM1 4739   4.617   0.913   5.848
 4740OM     OM1 4740   4.744   0.694   5.848
 4741OM     OM1 4741   4.617   1.060   6.055
 4742OM     OM1 4742   4.617   1.206   0.062
 4743OM     OM1 4743   4.744   0.987   0.062
 4744OM     OM1 4744   4.617   1.060   1.095
 4745OM     OM1 4745   4.744   1.133   0.888
 4746OM     OM1 4746   4.617   1.206   1.302
 4747OM     OM1 4747   4.744   0.987   1.302
 4748OM     OM1 4748   4.744   1.133   2.128
 4749OM     OM1 4749   4.617   1.060   2.335
 4750OM     OM1 4750   4.617   1.206   2.542
 4751OM     OM1 4751   4.744   0.987   2.542
 4752OM     OM1 4752   4.744   1.133   3.368
 4753OM     OM1 4753   4.617   1.060   3.575
 4754OM     OM1 4754   4.617   1.206   3.782
 4755OM     OM1 4755   4.744   0.987   3.782
 4756OM     OM1 4756   4.744   1.133   4.608
 4757OM     OM1 4757   4.617   1.060   4.815
 4758OM     OM1 4758   4.617   1.206   5.022
 4759OM     OM1 4759   4.744   0.987   5.022
 4760OM     OM1 4760   4.744   1.133   5.848
 4761OM     OM1 4761   4.744   1.425   0.062
 4762OM     OM1 4762   4.617   1.352   0.268
 4763OM     OM1 4763   4.744   1.279   0.475
 4764OM     OM1 4764   4.617   1.498   0.475
 4765OM     OM1 4765   4.744   1.425   1.302
 4766OM     OM1 4766   4.617   1.352   1.508
 4767OM     OM1 4767   4.744   1.279   1.715
 4768OM     OM1 4768   4.617   1.498   1.715
 4769OM     OM1 4769   4.744   1.425   2.542
 4770OM     OM1 4770   4.617   1.352   2.748
 4771OM     OM1 4771   4.744   1.279   2.955
 4772OM     OM1 4772   4.617   1.498   2.955
 4773OM     OM1 4773   4.744   1.425   3.782
 4774OM     OM1 4774   4.617   1.352   3.988
 4775OM     OM1 4775   4.744   1.279   4.195
 4776OM     OM1 4776   4.617   1.498   4.195
 4777OM     OM1 4777   4.744   1.425   5.022
 4778OM     OM1 4778   4.617   1.352   5.228
 4779OM     OM1 4779   4.744   1.279   5.435
 4780OM     OM1 4780   4.617   1.498   5.435
 4781OM     OM1 4781   4.617   1.937   6.055
 4782OM     OM1 4782   4.744   1.864   0.062
 4783OM     OM1 4783   4.744   1.717   0.475
 4784OM     OM1 4784   4.617   1.644   0.682
 4785OM     OM1 4785   4.617   1.791   0.888
 4786OM     OM1 4786   4.744   1.571   0.888
 4787OM     OM1 4787   4.744   2.010   0.888
 4788OM     OM1 4788   4.617   1.937   1.095
 4789OM     OM1 4789   4.744   1.864   1.302
 4790OM     OM1 4790   4.744   1.717   1.715
 4791OM     OM1 4791   4.617   1.644   1.922
 4792OM     OM1 4792   4.617   1.791   2.128
 4793OM     OM1 4793   4.744   1.571   2.128
 4794OM     OM1 4794   4.744   2.010   2.128
 4795OM     OM1 4795   4.617   1.937   2.335
 4796OM     OM1 4796   4.744   1.864   2.542
 4797OM     OM1 4797   4.744   1.717   2.955
 4798OM     OM1 4798   4.617   1.644   3.162
 4799OM     OM1 4799   4.617   1.791   3.368
 4800OM     OM1 4800   4.744   1.571   3.368
 4801OM     OM1 4801   4.744   2.010   3.368
 4802OM     OM1 4802   4.617   1.937   3.575
 4803OM     OM1 4803   4.744   1.864   3.782
 4804OM     OM1 4804   4.744   1.717   4.195
 4805OM     OM1 4805   4.617   1.644   4.402
 4806OM     OM1 4806   4.617   1.791   4.608
 4807OM     OM1 4807   4.744   1.571   4.608
 4808OM     OM1 4808   4.744   2.010   4.608
 4809OM     OM1 4809   4.617   1.937   4.815
 4810OM     OM1 4810   4.744   1.864   5.022
 4811OM     OM1 4811   4.744   1.717   5.435
 4812OM     OM1 4812   4.617   1.644   5.642
 4813OM     OM1 4813   4.617   1.791   5.848
 4814OM     OM1 4814   4.744   1.571   5.848
 4815OM     OM1 4815   4.744   2.010   5.848
 4816OM     OM1 4816   4.744   4.348   0.475
 4817OM     OM1 4817   4.617   4.275   0.682
 4818OM     OM1 4818   4.617   4.422   0.888
 4819OM     OM1 4819   4.744   4.202   0.888
 4820OM     OM1 4820   4.744   4.348   1.715
 4821OM     OM1 4821   4.617   4.275   1.922
 4822OM     OM1 4822   4.617   4.422   2.128
 4823OM     OM1 4823   4.744   4.202   2.128
 4824OM     OM1 4824   4.744   4.348   2.955
 4825OM     OM1 4825   4.617   4.275   3.162
 4826OM     OM1 4826   4.617   4.422   3.368
 4827OM     OM1 4827   4.744   4.202   3.368
 4828OM     OM1 4828   4.744   4.348   4.195
 4829OM     OM1 4829   4.617   4.275   4.402
 4830OM     OM1 4830   4.617   4.422   4.608
 4831OM     OM1 4831   4.744   4.202   4.608
 4832OM     OM1 4832   4.744   4.348   5.435
 4833OM     OM1 4833   4.617   4.275   5.642
 4834OM     OM1 4834   4.617   4.422   5.848
 4835OM     OM1 4835   4.744   4.202   5.848
 4836OM     OM1 4836   4.617   4.568   6.055
 4837OM     OM1 4837   4.744   4.495   0.062
 4838OM     OM1 4838   4.617   4.714   0.062
 4839OM     OM1 4839   4.617   4.568   1.095
 4840OM     OM1 4840   4.744   4.641   0.888
 4841OM     OM1 4841   4.744   4.495   1.302
 4842OM     OM1 4842   4.617   4.714   1.302
 4843OM     OM1 4843   4.744   4.641   2.128
 4844OM     OM1 4844   4.617   4.568   2.335
 4845OM     OM1 4845   4.744   4.495   2.542
 4846OM     OM1 4846   4.617   4.714   2.542
 4847OM     OM1 4847   4.744   4.641   3.368
 4848OM     OM1 4848   4.617   4.568   3.575
 4849OM     OM1 4849   4.744   4.495   3.782
 4850OM     OM1 4850   4.617   4.714   3.782
 4851OM     OM1 4851   4.744   4.641   4.608
 4852OM     OM1 4852   4.617   4.568   4.815
 4853OM     OM1 4853   4.744   4.495   5.022
 4854OM     OM1 4854   4.617   4.714   5.022
 4855OM     OM1 4855   4.744   4.641   5.848
 4856OM     OM1 4856   4.744   4.933   0.062
 4857OM     OM1 4857   4.617   4.860   0.268
 4858OM     OM1 4858   4.617   5.006   0.475
 4859OM     OM1 4859   4.744   4.787   0.475
 4860OM     OM1 4860   4.744   5.225   0.475
 4861OM     OM1 4861   4.617   5.152   0.682
 4862OM     OM1 4862   4.617   5.299   0.888
 4863OM     OM1 4863   4.744   5.079   0.888
 4864OM     OM1 4864   4.744   4.933   1.302
 4865OM     OM1 4865   4.617   4.860   1.508
 4866OM     OM1 4866   4.617   5.006   1.715
 4867OM     OM1 4867   4.744   4.787   1.715
 4868OM     OM1 4868   4.744   5.225   1.715
 4869OM     OM1 4869   4.617   5.152   1.922
 4870OM     OM1 4870   4.617   5.299   2.128
 4871OM     OM1 4871   4.744   5.079   2.128
 4872OM     OM1 4872   4.744   4.933   2.542
 4873OM     OM1 4873   4.617   4.860   2.748
 4874OM     OM1 4874   4.617   5.006   2.955
 4875OM     OM1 4875   4.744   4.787   2.955
 4876OM     OM1 4876   4.744   5.225   2.955
 4877OM     OM1 4877   4.617   5.152   3.162
 4878OM     OM1 4878   4.617   5.299   3.368
 4879OM     OM1 4879   4.744   5.079   3.368
 4880OM     OM1 4880   4.744   4.933   3.782
 4881OM     OM1 4881   4.617   4.860   3.988
 4882OM     OM1 4882   4.617   5.006   4.195
 4883OM     OM1 4883   4.744   4.787   4.195
 4884OM     OM1 4884   4.744   5.225   4.195
 4885OM     OM1 4885   4.617   5.152   4.402
 4886OM     OM1 4886   4.617   5.299   4.608
 4887OM     OM1 4887   4.744   5.079   4.608
 4888OM     OM1 4888   4.744   4.933   5.022
 4889OM     OM1 4889   4.617   4.860   5.228
 4890OM     OM1 4890   4.617   5.006   5.435
 4891OM     OM1 4891   4.744   4.787   5.435
 4892OM     OM1 4892   4.744   5.225   5.435
 4893OM     OM1 4893   4.617   5.152   5.642
 4894OM     OM1 4894   4.617   5.299   5.848
 4895OM     OM1 4895   4.744   5.079   5.848
 4896OM     OM1 4896   4.617   5.445   6.055
 4897OM     OM1 4897   4.744   5.372   0.062
 4898OM     OM1 4898   4.617   5.591   0.062
 4899OM     OM1 4899   4.617   5.445   1.095
 4900OM     OM1 4900   4.744   5.518   0.888
 4901OM     OM1 4901   4.744   5.372   1.302
 4902OM     OM1 4902   4.617   5.591   1.302
 4903OM     OM1 4903   4.744   5.518   2.128
 4904OM     OM1 4904   4.617   5.445   2.335
 4905OM     OM1 4905   4.744   5.372   2.542
 4906OM     OM1 4906   4.617   5.591   2.542
 4907OM     OM1 4907   4.744   5.518   3.368
 4908OM     OM1 4908   4.617   5.445   3.575
 4909OM     OM1 4909   4.744   5.372   3.782
 4910OM     OM1 4910   4.617   5.591   3.782
 4911OM     OM1 4911   4.744   5.518   4.608
 4912OM     OM1 4912   4.617   5.445   4.815
 4913OM     OM1 4913   4.744   5.372   5.022
 4914OM     OM1 4914   4.617   5.591   5.022
 4915OM     OM1 4915   4.744   5.518   5.848
 4916OM     OM1 4916   4.744   5.810   0.062
 4917OM     OM1 4917   4.617   5.737   0.268
 4918OM     OM1 4918   4.744   5.664   0.475
 4919OM     OM1 4919   4.617   5.883   0.475
 4920OM     OM1 4920   4.744   6.102   0.475
 4921OM     OM1 4921   4.617   6.029   0.682
 4922OM     OM1 4922   4.744   5.956   0.888
 4923OM     OM1 4923   4.744   5.810   1.302
 4924OM     OM1 4924   4.617   5.737   1.508
 4925OM     OM1 4925   4.744   5.664   1.715
 4926OM     OM1 4926   4.617   5.883   1.715
 4927OM     OM1 4927   4.744   6.102   1.715
 4928OM     OM1 4928   4.617   6.029   1.922
 4929OM     OM1 4929   4.744   5.956   2.128
 4930OM     OM1 4930   4.744   5.810   2.542
 4931OM     OM1 4931   4.617   5.737   2.748
 4932OM     OM1 4932   4.744   5.664   2.955
 4933OM     OM1 4933   4.617   5.883   2.955
 4934OM     OM1 4934   4.744   6.102   2.955
 4935OM     OM1 4935   4.617   6.029   3.162
 4936OM     OM1 4936   4.744   5.956   3.368
 4937OM     OM1 4937   4.744   5.810   3.782
 4938OM     OM1 4938   4.617   5.737   3.988
 4939OM     OM1 4939   4.744   5.664   4.195
 4940OM     OM1 4940   4.617   5.883   4.195
 4941OM     OM1 4941   4.744   6.102   4.195
 4942OM     OM1 4942   4.617   6.029   4.402
 4943OM     OM1 4943   4.744   5.956   4.608
 4944OM     OM1 4944   4.744   5.810   5.022
 4945OM     OM1 4945   4.617   5.737   5.228
 4946OM     OM1 4946   4.744   5.664   5.435
 4947OM     OM1 4947   4.617   5.883   5.435
 4948OM     OM1 4948   4.744   6.102   5.435
 4949OM     OM1 4949   4.617   6.029   5.642
 4950OM     OM1 4950   4.744   5.956   5.848
 4951OM     OM1 4951   4.997   0.110   0.062
 4952OM     OM1 4952   4.870   0.036   0.268
 4953OM     OM1 4953   4.870   6.029   0.062
 4954OM     OM1 4954   5.123   0.183   6.055
 4955OM     OM1 4955   5.123   0.329   0.062
 4956OM     OM1 4956   5.250   0.110   0.062
 4957OM     OM1 4957   4.870   0.183   0.475
 4958OM     OM1 4958   4.997   6.102   0.475
 4959OM     OM1 4959   4.997   0.402   0.475
 4960OM     OM1 4960   4.870   0.329   0.682
 4961OM     OM1 4961   4.870   0.475   0.888
 4962OM     OM1 4962   4.997   0.256   0.888
 4963OM     OM1 4963   5.123   0.183   1.095
 4964OM     OM1 4964   5.123   0.036   0.888
 4965OM     OM1 4965   5.250   0.256   0.888
 4966OM     OM1 4966   4.997   0.110   1.302
 4967OM     OM1 4967   4.870   0.036   1.508
 4968OM     OM1 4968   4.870   6.029   1.302
 4969OM     OM1 4969   5.123   0.329   1.302
 4970OM     OM1 4970   5.250   0.110   1.302
 4971OM     OM1 4971   4.870   0.183   1.715
 4972OM     OM1 4972   4.997   6.102   1.715
 4973OM     OM1 4973   4.997   0.402   1.715
 4974OM     OM1 4974   4.870   0.329   1.922
 4975OM     OM1 4975   4.870   0.475   2.128
 4976OM     OM1 4976   4.997   0.256   2.128
 4977OM     OM1 4977   5.123   0.036   2.128
 4978OM     OM1 4978   5.250   0.256   2.128
 4979OM     OM1 4979   5.123   0.183   2.335
 4980OM     OM1 4980   4.997   0.110   2.542
 4981OM     OM1 4981   4.870   6.029   2.542
 4982OM     OM1 4982   4.870   0.036   2.748
 4983OM     OM1 4983   5.123   0.329   2.542
 4984OM     OM1 4984   5.250   0.110   2.542
 4985OM     OM1 4985   4.870   0.183   2.955
 4986OM     OM1 4986   4.997   6.102   2.955
 4987OM     OM1 4987   4.997   0.402   2.955
 4988OM     OM1 4988   4.870   0.329   3.162
 4989OM     OM1 4989   4.870   0.475   3.368
 4990OM     OM1 4990   4.997   0.256   3.368
 4991OM     OM1 4991   5.123   0.036   3.368
 4992OM     OM1 4992   5.250   0.256   3.368
 4993OM     OM1 4993   5.123   0.183   3.575
 4994OM     OM1 4994   4.997   0.110   3.782
 4995OM     OM1 4995   4.870   6.029   3.782
 4996OM     OM1 4996   4.870   0.036   3.988
 4997OM     OM1 4997   5.123   0.329   3.782
 4998OM     OM1 4998   5.250   0.110   3.782
 4999OM     OM1 4999   4.870   0.183   4.195
 5000OM     OM1 5000   4.997   6.102   4.195
 5001OM     OM1 5001   4.997   0.402   4.195
 5002OM     OM1 5002   4.870   0.329   4.402
 5003OM     OM1 5003   4.870   0.475   4.608
 5004OM     OM1 5004   4.997   0.256   4.608
 5005OM     OM1 5005   5.123   0.036   4.608
 5006OM     OM1 5006   5.250   0.256   4.608
 5007OM     OM1 5007   5.123   0.183   4.815
 5008OM     OM1 5008   4.997   0.110   5.022
 5009OM     OM1 5009   4.870   6.029   5.022
 5010OM     OM1 5010   4.870   0.036   5.228
 5011OM     OM1 5011   5.123   0.329   5.022
 5012OM     OM1 5012   5.250   0.110   5.022
 5013OM     OM1 5013   4.870   0.183   5.435
 5014OM     OM1 5014   4.997   6.102   5.435
 5015OM     OM1 5015   4.997   0.402   5.435
 5016OM     OM1 5016   4.870   0.329   5.642
 5017OM     OM1 5017   4.870   0.475   5.848
 5018OM     OM1 5018   4.997   0.256   5.848
 5019OM     OM1 5019   5.123   0.036   5.848
 5020OM     OM1 5020   5.250   0.256   5.848
 5021OM     OM1 5021   4.870   0.621   6.055
 5022OM     OM1 5022   4.997   0.548   0.062
 5023OM     OM1 5023   4.870   0.767   0.062
 5024OM     OM1 5024   5.123   0.475   0.268
 5025OM     OM1 5025   5.250   0.548   0.062
 5026OM     OM1 5026   5.123   0.621   0.475
 5027OM     OM1 5027   5.250   0.402   0.475
 5028OM     OM1 5028   4.997   0.840   0.475
 5029OM     OM1 5029   5.250   0.840   0.475
 5030OM     OM1 5030   5.123   0.767   0.682
 5031OM     OM1 5031   4.870   0.621   1.095
 5032OM     OM1 5032   4.997   0.694   0.888
 5033OM     OM1 5033   5.123   0.913   0.888
 5034OM     OM1 5034   5.250   0.694   0.888
 5035OM     OM1 5035   4.997   0.548   1.302
 5036OM     OM1 5036   4.870   0.767   1.302
 5037OM     OM1 5037   5.123   0.475   1.508
 5038OM     OM1 5038   5.250   0.548   1.302
 5039OM     OM1 5039   5.123   0.621   1.715
 5040OM     OM1 5040   5.250   0.402   1.715
 5041OM     OM1 5041   4.997   0.840   1.715
 5042OM     OM1 5042   5.250   0.840   1.715
 5043OM     OM1 5043   5.123   0.767   1.922
 5044OM     OM1 5044   4.997   0.694   2.128
 5045OM     OM1 5045   4.870   0.621   2.335
 5046OM     OM1 5046   5.123   0.913   2.128
 5047OM     OM1 5047   5.250   0.694   2.128
 5048OM     OM1 5048   4.997   0.548   2.542
 5049OM     OM1 5049   4.870   0.767   2.542
 5050OM     OM1 5050   5.250   0.548   2.542
 5051OM     OM1 5051   5.123   0.475   2.748
 5052OM     OM1 5052   5.123   0.621   2.955
 5053OM     OM1 5053   5.250   0.402   2.955
 5054OM     OM1 5054   4.997   0.840   2.955
 5055OM     OM1 5055   5.250   0.840   2.955
 5056OM     OM1 5056   5.123   0.767   3.162
 5057OM     OM1 5057   4.997   0.694   3.368
 5058OM     OM1 5058   4.870   0.621   3.575
 5059OM     OM1 5059   5.123   0.913   3.368
 5060OM     OM1 5060   5.250   0.694   3.368
 5061OM     OM1 5061   4.997   0.548   3.782
 5062OM     OM1 5062   4.870   0.767   3.782
 5063OM     OM1 5063   5.250   0.548   3.782
 5064OM     OM1 5064   5.123   0.475   3.988
 5065OM     OM1 5065   5.123   0.621   4.195
 5066OM     OM1 5066   5.250   0.402   4.195
 5067OM     OM1 5067   4.997   0.840   4.195
 5068OM     OM1 5068   5.250   0.840   4.195
 5069OM     OM1 5069   5.123   0.767   4.402
 5070OM     OM1 5070   4.997   0.694   4.608
 5071OM     OM1 5071   4.870   0.621   4.815
 5072OM     OM1 5072   5.123   0.913   4.608
 5073OM     OM1 5073   5.250   0.694   4.608
 5074OM     OM1 5074   4.997   0.548   5.022
 5075OM     OM1 5075   4.870   0.767   5.022
 5076OM     OM1 5076   5.250   0.548   5.022
 5077OM     OM1 5077   5.123   0.475   5.228
 5078OM     OM1 5078   5.123   0.621   5.435
 5079OM     OM1 5079   5.250   0.402   5.435
 5080OM     OM1 5080   4.997   0.840   5.435
 5081OM     OM1 5081   5.250   0.840   5.435
 5082OM     OM1 5082   5.123   0.767   5.642
 5083OM     OM1 5083   4.997   0.694   5.848
 5084OM     OM1 5084   5.123   0.913   5.848
 5085OM     OM1 5085   5.250   0.694   5.848
 5086OM     OM1 5086   4.997   0.987   0.062
 5087OM     OM1 5087   4.870   0.913   0.268
 5088OM     OM1 5088   5.123   1.060   6.055
 5089OM     OM1 5089   5.123   1.206   0.062
 5090OM     OM1 5090   5.250   0.987   0.062
 5091OM     OM1 5091   4.870   1.060   0.475
 5092OM     OM1 5092   4.997   1.133   0.888
 5093OM     OM1 5093   5.123   1.060   1.095
 5094OM     OM1 5094   5.250   1.133   0.888
 5095OM     OM1 5095   4.997   0.987   1.302
 5096OM     OM1 5096   4.870   0.913   1.508
 5097OM     OM1 5097   5.123   1.206   1.302
 5098OM     OM1 5098   5.250   0.987   1.302
 5099OM     OM1 5099   4.870   1.060   1.715
 5100OM     OM1 5100   4.997   1.133   2.128
 5101OM     OM1 5101   5.250   1.133   2.128
 5102OM     OM1 5102   5.123   1.060   2.335
 5103OM     OM1 5103   4.997   0.987   2.542
 5104OM     OM1 5104   4.870   0.913   2.748
 5105OM     OM1 5105   5.123   1.206   2.542
 5106OM     OM1 5106   5.250   0.987   2.542
 5107OM     OM1 5107   4.870   1.060   2.955
 5108OM     OM1 5108   4.997   1.133   3.368
 5109OM     OM1 5109   5.250   1.133   3.368
 5110OM     OM1 5110   5.123   1.060   3.575
 5111OM     OM1 5111   4.997   0.987   3.782
 5112OM     OM1 5112   4.870   0.913   3.988
 5113OM     OM1 5113   5.123   1.206   3.782
 5114OM     OM1 5114   5.250   0.987   3.782
 5115OM     OM1 5115   4.870   1.060   4.195
 5116OM     OM1 5116   4.997   1.133   4.608
 5117OM     OM1 5117   5.250   1.133   4.608
 5118OM     OM1 5118   5.123   1.060   4.815
 5119OM     OM1 5119   4.997   0.987   5.022
 5120OM     OM1 5120   4.870   0.913   5.228
 5121OM     OM1 5121   5.123   1.206   5.022
 5122OM     OM1 5122   5.250   0.987   5.022
 5123OM     OM1 5123   4.870   1.060   5.435
 5124OM     OM1 5124   4.997   1.133   5.848
 5125OM     OM1 5125   5.250   1.133   5.848
 5126OM     OM1 5126   4.870   1.498   6.055
 5127OM     OM1 5127   4.870   1.644   0.062
 5128OM     OM1 5128   4.997   1.425   0.062
 5129OM     OM1 5129   5.123   1.352   0.268
 5130OM     OM1 5130   5.250   1.425   0.062
 5131OM     OM1 5131   4.997   1.279   0.475
 5132OM     OM1 5132   4.870   1.206   0.682
 5133OM     OM1 5133   5.123   1.498   0.475
 5134OM     OM1 5134   5.250   1.279   0.475
 5135OM     OM1 5135   4.870   1.498   1.095
 5136OM     OM1 5136   4.870   1.352   0.888
 5137OM     OM1 5137   4.997   1.571   0.888
 5138OM     OM1 5138   4.870   1.644   1.302
 5139OM     OM1 5139   4.997   1.425   1.302
 5140OM     OM1 5140   5.123   1.352   1.508
 5141OM     OM1 5141   5.250   1.425   1.302
 5142OM     OM1 5142   4.997   1.279   1.715
 5143OM     OM1 5143   4.870   1.206   1.922
 5144OM     OM1 5144   5.123   1.498   1.715
 5145OM     OM1 5145   5.250   1.279   1.715
 5146OM     OM1 5146   4.870   1.352   2.128
 5147OM     OM1 5147   4.997   1.571   2.128
 5148OM     OM1 5148   4.870   1.498   2.335
 5149OM     OM1 5149   4.870   1.644   2.542
 5150OM     OM1 5150   4.997   1.425   2.542
 5151OM     OM1 5151   5.250   1.425   2.542
 5152OM     OM1 5152   5.123   1.352   2.748
 5153OM     OM1 5153   4.997   1.279   2.955
 5154OM     OM1 5154   4.870   1.206   3.162
 5155OM     OM1 5155   5.123   1.498   2.955
 5156OM     OM1 5156   5.250   1.279   2.955
 5157OM     OM1 5157   4.870   1.352   3.368
 5158OM     OM1 5158   4.997   1.571   3.368
 5159OM     OM1 5159   4.870   1.498   3.575
 5160OM     OM1 5160   4.870   1.644   3.782
 5161OM     OM1 5161   4.997   1.425   3.782
 5162OM     OM1 5162   5.250   1.425   3.782
 5163OM     OM1 5163   5.123   1.352   3.988
 5164OM     OM1 5164   4.997   1.279   4.195
 5165OM     OM1 5165   4.870   1.206   4.402
 5166OM     OM1 5166   5.123   1.498   4.195
 5167OM     OM1 5167   5.250   1.279   4.195
 5168OM     OM1 5168   4.870   1.352   4.608
 5169OM     OM1 5169   4.997   1.571   4.608
 5170OM     OM1 5170   4.870   1.498   4.815
 5171OM     OM1 5171   4.870   1.644   5.022
 5172OM     OM1 5172   4.997   1.425   5.022
 5173OM     OM1 5173   5.250   1.425   5.022
 5174OM     OM1 5174   5.123   1.352   5.228
 5175OM     OM1 5175   4.997   1.279   5.435
 5176OM     OM1 5176   4.870   1.206   5.642
 5177OM     OM1 5177   5.123   1.498   5.435
 5178OM     OM1 5178   5.250   1.279   5.435
 5179OM     OM1 5179   4.870   1.352   5.848
 5180OM     OM1 5180   4.997   1.571   5.848
 5181OM     OM1 5181   4.997   1.864   0.062
 5182OM     OM1 5182   4.870   1.791   0.268
 5183OM     OM1 5183   5.123   1.937   6.055
 5184OM     OM1 5184   5.123   2.083   0.062
 5185OM     OM1 5185   5.250   1.864   0.062
 5186OM     OM1 5186   4.997   1.717   0.475
 5187OM     OM1 5187   5.123   1.644   0.682
 5188OM     OM1 5188   5.250   1.717   0.475
 5189OM     OM1 5189   4.870   1.937   0.475
 5190OM     OM1 5190   5.123   1.791   0.888
 5191OM     OM1 5191   5.250   1.571   0.888
 5192OM     OM1 5192   4.997   2.010   0.888
 5193OM     OM1 5193   5.250   2.010   0.888
 5194OM     OM1 5194   5.123   1.937   1.095
 5195OM     OM1 5195   4.997   1.864   1.302
 5196OM     OM1 5196   4.870   1.791   1.508
 5197OM     OM1 5197   5.123   2.083   1.302
 5198OM     OM1 5198   5.250   1.864   1.302
 5199OM     OM1 5199   4.997   1.717   1.715
 5200OM     OM1 5200   5.123   1.644   1.922
 5201OM     OM1 5201   5.250   1.717   1.715
 5202OM     OM1 5202   4.870   1.937   1.715
 5203OM     OM1 5203   5.123   1.791   2.128
 5204OM     OM1 5204   5.250   1.571   2.128
 5205OM     OM1 5205   4.997   2.010   2.128
 5206OM     OM1 5206   5.250   2.010   2.128
 5207OM     OM1 5207   5.123   1.937   2.335
 5208OM     OM1 5208   4.997   1.864   2.542
 5209OM     OM1 5209   4.870   1.791   2.748
 5210OM     OM1 5210   5.123   2.083   2.542
 5211OM     OM1 5211   5.250   1.864   2.542
 5212OM     OM1 5212   4.997   1.717   2.955
 5213OM     OM1 5213   5.250   1.717   2.955
 5214OM     OM1 5214   5.123   1.644   3.162
 5215OM     OM1 5215   4.870   1.937   2.955
 5216OM     OM1 5216   5.123   1.791   3.368
 5217OM     OM1 5217   5.250   1.571   3.368
 5218OM     OM1 5218   4.997   2.010   3.368
 5219OM     OM1 5219   5.250   2.010   3.368
 5220OM     OM1 5220   5.123   1.937   3.575
 5221OM     OM1 5221   4.997   1.864   3.782
 5222OM     OM1 5222   4.870   1.791   3.988
 5223OM     OM1 5223   5.123   2.083   3.782
 5224OM     OM1 5224   5.250   1.864   3.782
 5225OM     OM1 5225   4.997   1.717   4.195
 5226OM     OM1 5226   5.250   1.717   4.195
 5227OM     OM1 5227   5.123   1.644   4.402
 5228OM     OM1 5228   4.870   1.937   4.195
 5229OM     OM1 5229   5.123   1.791   4.608
 5230OM     OM1 5230   5.250   1.571   4.608
 5231OM     OM1 5231   4.997   2.010   4.608
 5232OM     OM1 5232   5.250   2.010   4.608
 5233OM     OM1 5233   5.123   1.937   4.815
 5234OM     OM1 5234   4.997   1.864   5.022
 5235OM     OM1 5235   4.870   1.791   5.228
 5236OM     OM1 5236   5.123   2.083   5.022
 5237OM     OM1 5237   5.250   1.864   5.022
 5238OM     OM1 5238   4.997   1.717   5.435
 5239OM     OM1 5239   5.250   1.717   5.435
 5240OM     OM1 5240   5.123   1.644   5.642
 5241OM     OM1 5241   4.870   1.937   5.435
 5242OM     OM1 5242   5.123   1.791   5.848
 5243OM     OM1 5243   5.250   1.571   5.848
 5244OM     OM1 5244   4.997   2.010   5.848
 5245OM     OM1 5245   5.250   2.010   5.848
 5246OM     OM1 5246   4.870   2.375   6.055
 5247OM     OM1 5247   4.870   2.521   0.062
 5248OM     OM1 5248   4.997   2.302   0.062
 5249OM     OM1 5249   5.123   2.229   0.268
 5250OM     OM1 5250   5.250   2.302   0.062
 5251OM     OM1 5251   4.997   2.156   0.475
 5252OM     OM1 5252   4.870   2.083   0.682
 5253OM     OM1 5253   5.123   2.375   0.475
 5254OM     OM1 5254   5.250   2.156   0.475
 5255OM     OM1 5255   4.997   2.448   0.888
 5256OM     OM1 5256   4.870   2.375   1.095
 5257OM     OM1 5257   4.870   2.229   0.888
 5258OM     OM1 5258   4.870   2.521   1.302
 5259OM     OM1 5259   4.997   2.302   1.302
 5260OM     OM1 5260   5.123   2.229   1.508
 5261OM     OM1 5261   5.250   2.302   1.302
 5262OM     OM1 5262   4.997   2.156   1.715
 5263OM     OM1 5263   4.870   2.083   1.922
 5264OM     OM1 5264   5.123   2.375   1.715
 5265OM     OM1 5265   5.250   2.156   1.715
 5266OM     OM1 5266   4.997   2.448   2.128
 5267OM     OM1 5267   4.870   2.229   2.128
 5268OM     OM1 5268   4.870   2.375   2.335
 5269OM     OM1 5269   4.870   2.521   2.542
 5270OM     OM1 5270   4.997   2.302   2.542
 5271OM     OM1 5271   5.250   2.302   2.542
 5272OM     OM1 5272   5.123   2.229   2.748
 5273OM     OM1 5273   4.997   2.156   2.955
 5274OM     OM1 5274   4.870   2.083   3.162
 5275OM     OM1 5275   5.123   2.375   2.955
 5276OM     OM1 5276   5.250   2.156   2.955
 5277OM     OM1 5277   4.997   2.448   3.368
 5278OM     OM1 5278   4.870   2.229   3.368
 5279OM     OM1 5279   4.870   2.375   3.575
 5280OM     OM1 5280   4.870   2.521   3.782
 5281OM     OM1 5281   4.997   2.302   3.782
 5282OM     OM1 5282   5.250   2.302   3.782
 5283OM     OM1 5283   5.123   2.229   3.988
 5284OM     OM1 5284   4.997   2.156   4.195
 5285OM     OM1 5285   4.870   2.083   4.402
 5286OM     OM1 5286   5.123   2.375   4.195
 5287OM     OM1 5287   5.250   2.156   4.195
 5288OM     OM1 5288   4.997   2.448   4.608
 5289OM     OM1 5289   4.870   2.229   4.608
 5290OM     OM1 5290   4.870   2.375   4.815
 5291OM     OM1 5291   4.870   2.521   5.022
 5292OM     OM1 5292   4.997   2.302   5.022
 5293OM     OM1 5293   5.250   2.302   5.022
 5294OM     OM1 5294   5.123   2.229   5.228
 5295OM     OM1 5295   4.997   2.156   5.435
 5296OM     OM1 5296   4.870   2.083   5.642
 5297OM     OM1 5297   5.123   2.375   5.435
 5298OM     OM1 5298   5.250   2.156   5.435
 5299OM     OM1 5299   4.997   2.448   5.848
 5300OM     OM1 5300   4.870   2.229   5.848
 5301OM     OM1 5301   4.997   2.741   0.062
 5302OM     OM1 5302   4.870   2.668   0.268
 5303OM     OM1 5303   4.997   2.594   0.475
 5304OM     OM1 5304   5.123   2.521   0.682
 5305OM     OM1 5305   5.250   2.594   0.475
 5306OM     OM1 5306   5.123   2.668   0.888
 5307OM     OM1 5307   5.250   2.448   0.888
 5308OM     OM1 5308   4.997   2.741   1.302
 5309OM     OM1 5309   4.870   2.668   1.508
 5310OM     OM1 5310   4.997   2.594   1.715
 5311OM     OM1 5311   5.123   2.521   1.922
 5312OM     OM1 5312   5.250   2.594   1.715
 5313OM     OM1 5313   5.123   2.668   2.128
 5314OM     OM1 5314   5.250   2.448   2.128
 5315OM     OM1 5315   4.997   2.741   2.542
 5316OM     OM1 5316   4.870   2.668   2.748
 5317OM     OM1 5317   4.997   2.594   2.955
 5318OM     OM1 5318   5.250   2.594   2.955
 5319OM     OM1 5319   5.123   2.521   3.162
 5320OM     OM1 5320   5.123   2.668   3.368
 5321OM     OM1 5321   5.250   2.448   3.368
 5322OM     OM1 5322   4.997   2.741   3.782
 5323OM     OM1 5323   4.870   2.668   3.988
 5324OM     OM1 5324   4.997   2.594   4.195
 5325OM     OM1 5325   5.250   2.594   4.195
 5326OM     OM1 5326   5.123   2.521   4.402
 5327OM     OM1 5327   5.123   2.668   4.608
 5328OM     OM1 5328   5.250   2.448   4.608
 5329OM     OM1 5329   4.997   2.741   5.022
 5330OM     OM1 5330   4.870   2.668   5.228
 5331OM     OM1 5331   4.997   2.594   5.435
 5332OM     OM1 5332   5.250   2.594   5.435
 5333OM     OM1 5333   5.123   2.521   5.642
 5334OM     OM1 5334   5.123   2.668   5.848
 5335OM     OM1 5335   5.250   2.448   5.848
 5336OM     OM1 5336   5.123   2.814   6.055
 5337OM     OM1 5337   5.123   2.960   0.062
 5338OM     OM1 5338   5.250   2.741   0.062
 5339OM     OM1 5339   5.123   3.106   0.268
 5340OM     OM1 5340   5.250   3.179   0.062
 5341OM     OM1 5341   5.123   3.252   0.475
 5342OM     OM1 5342   5.250   3.033   0.475
 5343OM     OM1 5343   5.123   2.814   1.095
 5344OM     OM1 5344   5.250   2.887   0.888
 5345OM     OM1 5345   5.123   2.960   1.302
 5346OM     OM1 5346   5.250   2.741   1.302
 5347OM     OM1 5347   5.123   3.106   1.508
 5348OM     OM1 5348   5.250   3.179   1.302
 5349OM     OM1 5349   5.123   3.252   1.715
 5350OM     OM1 5350   5.250   3.033   1.715
 5351OM     OM1 5351   5.250   2.887   2.128
 5352OM     OM1 5352   5.123   2.814   2.335
 5353OM     OM1 5353   5.123   2.960   2.542
 5354OM     OM1 5354   5.250   2.741   2.542
 5355OM     OM1 5355   5.250   3.179   2.542
 5356OM     OM1 5356   5.123   3.106   2.748
 5357OM     OM1 5357   5.123   3.252   2.955
 5358OM     OM1 5358   5.250   3.033   2.955
 5359OM     OM1 5359   5.250   2.887   3.368
 5360OM     OM1 5360   5.123   2.814   3.575
 5361OM     OM1 5361   5.123   2.960   3.782
 5362OM     OM1 5362   5.250   2.741   3.782
 5363OM     OM1 5363   5.250   3.179   3.782
 5364OM     OM1 5364   5.123   3.106   3.988
 5365OM     OM1 5365   5.123   3.252   4.195
 5366OM     OM1 5366   5.250   3.033   4.195
 5367OM     OM1 5367   5.250   2.887   4.608
 5368OM     OM1 5368   5.123   2.814   4.815
 5369OM     OM1 5369   5.123   2.960   5.022
 5370OM     OM1 5370   5.250   2.741   5.022
 5371OM     OM1 5371   5.250   3.179   5.022
 5372OM     OM1 5372   5.123   3.106   5.228
 5373OM     OM1 5373   5.123   3.252   5.435
 5374OM     OM1 5374   5.250   3.033   5.435
 5375OM     OM1 5375   5.250   2.887   5.848
 5376OM     OM1 5376   4.997   3.618   0.062
 5377OM     OM1 5377   4.870   3.545   0.268
 5378OM     OM1 5378   4.997   3.471   0.475
 5379OM     OM1 5379   5.123   3.398   0.682
 5380OM     OM1 5380   5.250   3.471   0.475
 5381OM     OM1 5381   4.870   3.691   0.475
 5382OM     OM1 5382   5.123   3.545   0.888
 5383OM     OM1 5383   5.250   3.325   0.888
 5384OM     OM1 5384   4.997   3.618   1.302
 5385OM     OM1 5385   4.870   3.545   1.508
 5386OM     OM1 5386   4.997   3.471   1.715
 5387OM     OM1 5387   5.123   3.398   1.922
 5388OM     OM1 5388   5.250   3.471   1.715
 5389OM     OM1 5389   4.870   3.691   1.715
 5390OM     OM1 5390   5.123   3.545   2.128
 5391OM     OM1 5391   5.250   3.325   2.128
 5392OM     OM1 5392   4.997   3.618   2.542
 5393OM     OM1 5393   4.870   3.545   2.748
 5394OM     OM1 5394   4.997   3.471   2.955
 5395OM     OM1 5395   5.250   3.471   2.955
 5396OM     OM1 5396   5.123   3.398   3.162
 5397OM     OM1 5397   4.870   3.691   2.955
 5398OM     OM1 5398   5.123   3.545   3.368
 5399OM     OM1 5399   5.250   3.325   3.368
 5400OM     OM1 5400   4.997   3.618   3.782
 5401OM     OM1 5401   4.870   3.545   3.988
 5402OM     OM1 5402   4.997   3.471   4.195
 5403OM     OM1 5403   5.250   3.471   4.195
 5404OM     OM1 5404   5.123   3.398   4.402
 5405OM     OM1 5405   4.870   3.691   4.195
 5406OM     OM1 5406   5.123   3.545   4.608
 5407OM     OM1 5407   5.250   3.325   4.608
 5408OM     OM1 5408   4.997   3.618   5.022
 5409OM     OM1 5409   4.870   3.545   5.228
 5410OM     OM1 5410   4.997   3.471   5.435
 5411OM     OM1 5411   5.250   3.471   5.435
 5412OM     OM1 5412   5.123   3.398   5.642
 5413OM     OM1 5413   4.870   3.691   5.435
 5414OM     OM1 5414   5.123   3.545   5.848
 5415OM     OM1 5415   5.250   3.325   5.848
 5416OM     OM1 5416   5.123   3.691   6.055
 5417OM     OM1 5417   5.123   3.837   0.062
 5418OM     OM1 5418   5.250   3.618   0.062
 5419OM     OM1 5419   4.997   4.056   0.062
 5420OM     OM1 5420   5.250   4.056   0.062
 5421OM     OM1 5421   5.123   3.983   0.268
 5422OM     OM1 5422   4.997   3.910   0.475
 5423OM     OM1 5423   4.870   3.837   0.682
 5424OM     OM1 5424   5.123   4.129   0.475
 5425OM     OM1 5425   5.250   3.910   0.475
 5426OM     OM1 5426   4.870   3.983   0.888
 5427OM     OM1 5427   4.997   3.764   0.888
 5428OM     OM1 5428   5.123   3.691   1.095
 5429OM     OM1 5429   5.250   3.764   0.888
 5430OM     OM1 5430   5.123   3.837   1.302
 5431OM     OM1 5431   5.250   3.618   1.302
 5432OM     OM1 5432   4.997   4.056   1.302
 5433OM     OM1 5433   5.250   4.056   1.302
 5434OM     OM1 5434   5.123   3.983   1.508
 5435OM     OM1 5435   4.997   3.910   1.715
 5436OM     OM1 5436   4.870   3.837   1.922
 5437OM     OM1 5437   5.123   4.129   1.715
 5438OM     OM1 5438   5.250   3.910   1.715
 5439OM     OM1 5439   4.870   3.983   2.128
 5440OM     OM1 5440   4.997   3.764   2.128
 5441OM     OM1 5441   5.250   3.764   2.128
 5442OM     OM1 5442   5.123   3.691   2.335
 5443OM     OM1 5443   5.123   3.837   2.542
 5444OM     OM1 5444   5.250   3.618   2.542
 5445OM     OM1 5445   4.997   4.056   2.542
 5446OM     OM1 5446   5.250   4.056   2.542
 5447OM     OM1 5447   5.123   3.983   2.748
 5448OM     OM1 5448   4.997   3.910   2.955
 5449OM     OM1 5449   4.870   3.837   3.162
 5450OM     OM1 5450   5.123   4.129   2.955
 5451OM     OM1 5451   5.250   3.910   2.955
 5452OM     OM1 5452   4.870   3.983   3.368
 5453OM     OM1 5453   4.997   3.764   3.368
 5454OM     OM1 5454   5.250   3.764   3.368
 5455OM     OM1 5455   5.123   3.691   3.575
 5456OM     OM1 5456   5.123   3.837   3.782
 5457OM     OM1 5457   5.250   3.618   3.782
 5458OM     OM1 5458   4.997   4.056   3.782
 5459OM     OM1 5459   5.250   4.056   3.782
 5460OM     OM1 5460   5.123   3.983   3.988
 5461OM     OM1 5461   4.997   3.910   4.195
 5462OM     OM1 5462   4.870   3.837   4.402
 5463OM     OM1 5463   5.123   4.129   4.195
 5464OM     OM1 5464   5.250   3.910   4.195
 5465OM     OM1 5465   4.870   3.983   4.608
 5466OM     OM1 5466   4.997   3.764   4.608
 5467OM     OM1 5467   5.250   3.764   4.608
 5468OM     OM1 5468   5.123   3.691   4.815
 5469OM     OM1 5469   5.123   3.837   5.022
 5470OM     OM1 5470   5.250   3.618   5.022
 5471OM     OM1 5471   4.997   4.056   5.022
 5472OM     OM1 5472   5.250   4.056   5.022
 5473OM     OM1 5473   5.123   3.983   5.228
 5474OM     OM1 5474   4.997   3.910   5.435
 5475OM     OM1 5475   4.870   3.837   5.642
 5476OM     OM1 5476   5.123   4.129   5.435
 5477OM     OM1 5477   5.250   3.910   5.435
 5478OM     OM1 5478   4.870   3.983   5.848
 5479OM     OM1 5479   4.997   3.764   5.848
 5480OM     OM1 5480   5.250   3.764   5.848
 5481OM     OM1 5481   4.870   4.129   6.055
 5482OM     OM1 5482   4.870   4.275   0.062
 5483OM     OM1 5483   4.997   4.348   0.475
 5484OM     OM1 5484   5.123   4.275   0.682
 5485OM     OM1 5485   5.250   4.348   0.475
 5486OM     OM1 5486   4.870   4.129   1.095
 5487OM     OM1 5487   4.997   4.202   0.888
 5488OM     OM1 5488   5.123   4.422   0.888
 5489OM     OM1 5489   5.250   4.202   0.888
 5490OM     OM1 5490   4.870   4.275   1.302
 5491OM     OM1 5491   4.997   4.348   1.715
 5492OM     OM1 5492   5.123   4.275   1.922
 5493OM     OM1 5493   5.250   4.348   1.715
 5494OM     OM1 5494   4.997   4.202   2.128
 5495OM     OM1 5495   4.870   4.129   2.335
 5496OM     OM1 5496   5.123   4.422   2.128
 5497OM     OM1 5497   5.250   4.202   2.128
 5498OM     OM1 5498   4.870   4.275   2.542
 5499OM     OM1 5499   4.997   4.348   2.955
 5500OM     OM1 5500   5.250   4.348   2.955
 5501OM     OM1 5501   5.123   4.275   3.162
 5502OM     OM1 5502   4.997   4.202   3.368
 5503OM     OM1 5503   4.870   4.129   3.575
 5504OM     OM1 5504   5.123   4.422   3.368
 5505OM     OM1 5505   5.250   4.202   3.368
 5506OM     OM1 5506   4.870   4.275   3.782
 5507OM     OM1 5507   4.997   4.348   4.195
 5508OM     OM1 5508   5.250   4.348   4.195
 5509OM     OM1 5509   5.123   4.275   4.402
 5510OM     OM1 5510   4.997   4.202   4.608
 5511OM     OM1 5511   4.870   4.129   4.815
 5512OM     OM1 5512   5.123   4.422   4.608
 5513OM     OM1 5513   5.250   4.202   4.608
 5514OM     OM1 5514   4.870   4.275   5.022
 5515OM     OM1 5515   4.997   4.348   5.435
 5516OM     OM1 5516   5.250   4.348   5.435
 5517OM     OM1 5517   5.123   4.275   5.642
 5518OM     OM1 5518   4.997   4.202   5.848
 5519OM     OM1 5519   5.123   4.422   5.848
 5520OM     OM1 5520   5.250   4.202   5.848
 5521OM     OM1 5521   4.997   4.495   0.062
 5522OM     OM1 5522   4.870   4.422   0.268
 5523OM     OM1 5523   5.123   4.568   6.055
 5524OM     OM1 5524   5.123   4.714   0.062
 5525OM     OM1 5525   5.250   4.495   0.062
 5526OM     OM1 5526   4.870   4.568   0.475
 5527OM     OM1 5527   4.997   4.787   0.475
 5528OM     OM1 5528   4.870   4.714   0.682
 5529OM     OM1 5529   4.870   4.860   0.888
 5530OM     OM1 5530   4.997   4.641   0.888
 5531OM     OM1 5531   5.123   4.568   1.095
 5532OM     OM1 5532   5.250   4.641   0.888
 5533OM     OM1 5533   4.997   4.495   1.302
 5534OM     OM1 5534   4.870   4.422   1.508
 5535OM     OM1 5535   5.123   4.714   1.302
 5536OM     OM1 5536   5.250   4.495   1.302
 5537OM     OM1 5537   4.870   4.568   1.715
 5538OM     OM1 5538   4.997   4.787   1.715
 5539OM     OM1 5539   4.870   4.714   1.922
 5540OM     OM1 5540   4.870   4.860   2.128
 5541OM     OM1 5541   4.997   4.641   2.128
 5542OM     OM1 5542   5.250   4.641   2.128
 5543OM     OM1 5543   5.123   4.568   2.335
 5544OM     OM1 5544   4.997   4.495   2.542
 5545OM     OM1 5545   4.870   4.422   2.748
 5546OM     OM1 5546   5.123   4.714   2.542
 5547OM     OM1 5547   5.250   4.495   2.542
 5548OM     OM1 5548   4.870   4.568   2.955
 5549OM     OM1 5549   4.997   4.787   2.955
 5550OM     OM1 5550   4.870   4.714   3.162
 5551OM     OM1 5551   4.870   4.860   3.368
 5552OM     OM1 5552   4.997   4.641   3.368
 5553OM     OM1 5553   5.250   4.641   3.368
 5554OM     OM1 5554   5.123   4.568   3.575
 5555OM     OM1 5555   4.997   4.495   3.782
 5556OM     OM1 5556   4.870   4.422   3.988
 5557OM     OM1 5557   5.123   4.714   3.782
 5558OM     OM1 5558   5.250   4.495   3.782
 5559OM     OM1 5559   4.870   4.568   4.195
 5560OM     OM1 5560   4.997   4.787   4.195
 5561OM     OM1 5561   4.870   4.714   4.402
 5562OM     OM1 5562   4.870   4.860   4.608
 5563OM     OM1 5563   4.997   4.641   4.608
 5564OM     OM1 5564   5.250   4.641   4.608
 5565OM     OM1 5565   5.123   4.568   4.815
 5566OM     OM1 5566   4.997   4.495   5.022
 5567OM     OM1 5567   4.870   4.422   5.228
 5568OM     OM1 5568   5.123   4.714   5.022
 5569OM     OM1 5569   5.250   4.495   5.022
 5570OM     OM1 5570   4.870   4.568   5.435
 5571OM     OM1 5571   4.997   4.787   5.435
 5572OM     OM1 5572   4.870   4.714   5.642
 5573OM     OM1 5573   4.870   4.860   5.848
 5574OM     OM1 5574   4.997   4.641   5.848
 5575OM     OM1 5575   5.250   4.641   5.848
 5576OM     OM1 5576   4.870   5.006   6.055
 5577OM     OM1 5577   4.997   4.933   0.062
 5578OM     OM1 5578   4.870   5.152   0.062
 5579OM     OM1 5579   5.123   4.860   0.268
 5580OM     OM1 5580   5.250   4.933   0.062
 5581OM     OM1 5581   5.123   5.006   0.475
 5582OM     OM1 5582   5.250   4.787   0.475
 5583OM     OM1 5583   4.997   5.225   0.475
 5584OM     OM1 5584   5.250   5.225   0.475
 5585OM     OM1 5585   5.123   5.152   0.682
 5586OM     OM1 5586   4.870   5.006   1.095
 5587OM     OM1 5587   4.997   5.079   0.888
 5588OM     OM1 5588   5.123   5.299   0.888
 5589OM     OM1 5589   5.250   5.079   0.888
 5590OM     OM1 5590   4.997   4.933   1.302
 5591OM     OM1 5591   4.870   5.152   1.302
 5592OM     OM1 5592   5.123   4.860   1.508
 5593OM     OM1 5593   5.250   4.933   1.302
 5594OM     OM1 5594   5.123   5.006   1.715
 5595OM     OM1 5595   5.250   4.787   1.715
 5596OM     OM1 5596   4.997   5.225   1.715
 5597OM     OM1 5597   5.250   5.225   1.715
 5598OM     OM1 5598   5.123   5.152   1.922
 5599OM     OM1 5599   4.997   5.079   2.128
 5600OM     OM1 5600   4.870   5.006   2.335
 5601OM     OM1 5601   5.123   5.299   2.128
 5602OM     OM1 5602   5.250   5.079   2.128
 5603OM     OM1 5603   4.997   4.933   2.542
 5604OM     OM1 5604   4.870   5.152   2.542
 5605OM     OM1 5605   5.250   4.933   2.542
 5606OM     OM1 5606   5.123   4.860   2.748
 5607OM     OM1 5607   5.123   5.006   2.955
 5608OM     OM1 5608   5.250   4.787   2.955
 5609OM     OM1 5609   4.997   5.225   2.955
 5610OM     OM1 5610   5.250   5.225   2.955
 5611OM     OM1 5611   5.123   5.152   3.162
 5612OM     OM1 5612   4.997   5.079   3.368
 5613OM     OM1 5613   4.870   5.006   3.575
 5614OM     OM1 5614   5.123   5.299   3.368
 5615OM     OM1 5615   5.250   5.079   3.368
 5616OM     OM1 5616   4.997   4.933   3.782
 5617OM     OM1 5617   4.870   5.152   3.782
 5618OM     OM1 5618   5.250   4.933   3.782
 5619OM     OM1 5619   5.123   4.860   3.988
 5620OM     OM1 5620   5.123   5.006   4.195
 5621OM     OM1 5621   5.250   4.787   4.195
 5622OM     OM1 5622   4.997   5.225   4.195
 5623OM     OM1 5623   5.250   5.225   4.195
 5624OM     OM1 5624   5.123   5.152   4.402
 5625OM     OM1 5625   4.997   5.079   4.608
 5626OM     OM1 5626   4.870   5.006   4.815
 5627OM     OM1 5627   5.123   5.299   4.608
 5628OM     OM1 5628   5.250   5.079   4.608
 5629OM     OM1 5629   4.997   4.933   5.022
 5630OM     OM1 5630   4.870   5.152   5.022
 5631OM     OM1 5631   5.250   4.933   5.022
 5632OM     OM1 5632   5.123   4.860   5.228
 5633OM     OM1 5633   5.123   5.006   5.435
 5634OM     OM1 5634   5.250   4.787   5.435
 5635OM     OM1 5635   4.997   5.225   5.435
 5636OM     OM1 5636   5.250   5.225   5.435
 5637OM     OM1 5637   5.123   5.152   5.642
 5638OM     OM1 5638   4.997   5.079   5.848
 5639OM     OM1 5639   5.123   5.299   5.848
 5640OM     OM1 5640   5.250   5.079   5.848
 5641OM     OM1 5641   4.997   5.372   0.062
 5642OM     OM1 5642   4.870   5.299   0.268
 5643OM     OM1 5643   5.123   5.445   6.055
 5644OM     OM1 5644   5.123   5.591   0.062
 5645OM     OM1 5645   5.250   5.372   0.062
 5646OM     OM1 5646   4.870   5.445   0.475
 5647OM     OM1 5647   4.997   5.664   0.475
 5648OM     OM1 5648   4.870   5.591   0.682
 5649OM     OM1 5649   4.870   5.737   0.888
 5650OM     OM1 5650   4.997   5.518   0.888
 5651OM     OM1 5651   5.123   5.445   1.095
 5652OM     OM1 5652   5.250   5.518   0.888
 5653OM     OM1 5653   4.997   5.372   1.302
 5654OM     OM1 5654   4.870   5.299   1.508
 5655OM     OM1 5655   5.123   5.591   1.302
 5656OM     OM1 5656   5.250   5.372   1.302
 5657OM     OM1 5657   4.870   5.445   1.715
 5658OM     OM1 5658   4.997   5.664   1.715
 5659OM     OM1 5659   4.870   5.591   1.922
 5660OM     OM1 5660   4.870   5.737   2.128
 5661OM     OM1 5661   4.997   5.518   2.128
 5662OM     OM1 5662   5.250   5.518   2.128
 5663OM     OM1 5663   5.123   5.445   2.335
 5664OM     OM1 5664   4.997   5.372   2.542
 5665OM     OM1 5665   4.870   5.299   2.748
 5666OM     OM1 5666   5.123   5.591   2.542
 5667OM     OM1 5667   5.250   5.372   2.542
 5668OM     OM1 5668   4.870   5.445   2.955
 5669OM     OM1 5669   4.997   5.664   2.955
 5670OM     OM1 5670   4.870   5.591   3.162
 5671OM     OM1 5671   4.870   5.737   3.368
 5672OM     OM1 5672   4.997   5.518   3.368
 5673OM     OM1 5673   5.250   5.518   3.368
 5674OM     OM1 5674   5.123   5.445   3.575
 5675OM     OM1 5675   4.997   5.372   3.782
 5676OM     OM1 5676   4.870   5.299   3.988
 5677OM     OM1 5677   5.123   5.591   3.782
 5678OM     OM1 5678   5.250   5.372   3.782
 5679OM     OM1 5679   4.870   5.445   4.195
 5680OM     OM1 5680   4.997   5.664   4.195
 5681OM     OM1 5681   4.870   5.591   4.402
 5682OM     OM1 5682   4.870   5.737   4.608
 5683OM     OM1 5683   4.997   5.518   4.608
 5684OM     OM1 5684   5.250   5.518   4.608
 5685OM     OM1 5685   5.123   5.445   4.815
 5686OM     OM1 5686   4.997   5.372   5.022
 5687OM     OM1 5687   4.870   5.299   5.228
 5688OM     OM1 5688   5.123   5.591   5.022
 5689OM     OM1 5689   5.250   5.372   5.022
 5690OM     OM1 5690   4.870   5.445   5.435
 5691OM     OM1 5691   4.997   5.664   5.435
 5692OM     OM1 5692   4.870   5.591   5.642
 5693OM     OM1 5693   4.870   5.737   5.848
 5694OM     OM1 5694   4.997   5.518   5.848
 5695OM     OM1 5695   5.250   5.518   5.848
 5696OM     OM1 5696   4.870   5.883   6.055
 5697OM     OM1 5697   4.997   5.810   0.062
 5698OM     OM1 5698   5.123   5.737   0.268
 5699OM     OM1 5699   5.250   5.810   0.062
 5700OM     OM1 5700   5.123   5.883   0.475
 5701OM     OM1 5701   5.250   5.664   0.475
 5702OM     OM1 5702   5.123   6.029   0.682
 5703OM     OM1 5703   5.250   6.102   0.475
 5704OM     OM1 5704   4.870   5.883   1.095
 5705OM     OM1 5705   4.997   5.956   0.888
 5706OM     OM1 5706   5.250   5.956   0.888
 5707OM     OM1 5707   4.997   5.810   1.302
 5708OM     OM1 5708   5.123   5.737   1.508
 5709OM     OM1 5709   5.250   5.810   1.302
 5710OM     OM1 5710   5.123   5.883   1.715
 5711OM     OM1 5711   5.250   5.664   1.715
 5712OM     OM1 5712   5.123   6.029   1.922
 5713OM     OM1 5713   5.250   6.102   1.715
 5714OM     OM1 5714   4.997   5.956   2.128
 5715OM     OM1 5715   4.870   5.883   2.335
 5716OM     OM1 5716   5.250   5.956   2.128
 5717OM     OM1 5717   4.997   5.810   2.542
 5718OM     OM1 5718   5.250   5.810   2.542
 5719OM     OM1 5719   5.123   5.737   2.748
 5720OM     OM1 5720   5.123   5.883   2.955
 5721OM     OM1 5721   5.250   5.664   2.955
 5722OM     OM1 5722   5.250   6.102   2.955
 5723OM     OM1 5723   5.123   6.029   3.162
 5724OM     OM1 5724   4.997   5.956   3.368
 5725OM     OM1 5725   4.870   5.883   3.575
 5726OM     OM1 5726   5.250   5.956   3.368
 5727OM     OM1 5727   4.997   5.810   3.782
 5728OM     OM1 5728   5.250   5.810   3.782
 5729OM     OM1 5729   5.123   5.737   3.988
 5730OM     OM1 5730   5.123   5.883   4.195
 5731OM     OM1 5731   5.250   5.664   4.195
 5732OM     OM1 5732   5.250   6.102   4.195
 5733OM     OM1 5733   5.123   6.029   4.402
 5734OM     OM1 5734   4.997   5.956   4.608
 5735OM     OM1 5735   4.870   5.883   4.815
 5736OM     OM1 5736   5.250   5.956   4.608
 5737OM     OM1 5737   4.997   5.810   5.022
 5738OM     OM1 5738   5.250   5.810   5.022
 5739OM     OM1 5739   5.123   5.737   5.228
 5740OM     OM1 5740   5.123   5.883   5.435
 5741OM     OM1 5741   5.250   5.664   5.435
 5742OM     OM1 5742   5.250   6.102   5.435
 5743OM     OM1 5743   5.123   6.029   5.642
 5744OM     OM1 5744   4.997   5.956   5.848
 5745OM     OM1 5745   5.250   5.956   5.848
 5746OM     OM1 5746   5.503   0.110   0.062
 5747OM     OM1 5747   5.376   0.036   0.268
 5748OM     OM1 5748   5.376   6.029   0.062
 5749OM     OM1 5749   5.376   0.183   0.475
 5750OM     OM1 5750   5.503   6.102   0.475
 5751OM     OM1 5751   5.503   0.402   0.475
 5752OM     OM1 5752   5.376   0.329   0.682
 5753OM     OM1 5753   5.376   0.475   0.888
 5754OM     OM1 5754   5.503   0.256   0.888
 5755OM     OM1 5755   5.503   0.110   1.302
 5756OM     OM1 5756   5.376   0.036   1.508
 5757OM     OM1 5757   5.376   6.029   1.302
 5758OM     OM1 5758   5.376   0.183   1.715
 5759OM     OM1 5759   5.503   6.102   1.715
 5760OM     OM1 5760   5.503   0.402   1.715
 5761OM     OM1 5761   5.376   0.329   1.922
 5762OM     OM1 5762   5.376   0.475   2.128
 5763OM     OM1 5763   5.503   0.256   2.128
 5764OM     OM1 5764   5.503   0.110   2.542
 5765OM     OM1 5765   5.376   6.029   2.542
 5766OM     OM1 5766   5.376   0.036   2.748
 5767OM     OM1 5767   5.376   0.183   2.955
 5768OM     OM1 5768   5.503   6.102   2.955
 5769OM     OM1 5769   5.503   0.402   2.955
 5770OM     OM1 5770   5.376   0.329   3.162
 5771OM     OM1 5771   5.376   0.475   3.368
 5772OM     OM1 5772   5.503   0.256   3.368
 5773OM     OM1 5773   5.503   0.110   3.782
 5774OM     OM1 5774   5.376   6.029   3.782
 5775OM     OM1 5775   5.376   0.036   3.988
 5776OM     OM1 5776   5.376   0.183   4.195
 5777OM     OM1 5777   5.503   6.102   4.195
 5778OM     OM1 5778   5.503   0.402   4.195
 5779OM     OM1 5779   5.376   0.329   4.402
 5780OM     OM1 5780   5.376   0.475   4.608
 5781OM     OM1 5781   5.503   0.256   4.608
 5782OM     OM1 5782   5.503   0.110   5.022
 5783OM     OM1 5783   5.376   6.029   5.022
 5784OM     OM1 5784   5.376   0.036   5.228
 5785OM     OM1 5785   5.376   0.183   5.435
 5786OM     OM1 5786   5.503   6.102   5.435
 5787OM     OM1 5787   5.503   0.402   5.435
 5788OM     OM1 5788   5.376   0.329   5.642
 5789OM     OM1 5789   5.376   0.475   5.848
 5790OM     OM1 5790   5.503   0.256   5.848
 5791OM     OM1 5791   5.376   0.621   6.055
 5792OM     OM1 5792   5.503   0.548   0.062
 5793OM     OM1 5793   5.376   0.767   0.062
 5794OM     OM1 5794   5.376   0.621   1.095
 5795OM     OM1 5795   5.503   0.694   0.888
 5796OM     OM1 5796   5.503   0.548   1.302
 5797OM     OM1 5797   5.376   0.767   1.302
 5798OM     OM1 5798   5.503   0.694   2.128
 5799OM     OM1 5799   5.376   0.621   2.335
 5800OM     OM1 5800   5.503   0.548   2.542
 5801OM     OM1 5801   5.376   0.767   2.542
 5802OM     OM1 5802   5.503   0.694   3.368
 5803OM     OM1 5803   5.376   0.621   3.575
 5804OM     OM1 5804   5.503   0.548   3.782
 5805OM     OM1 5805   5.376   0.767   3.782
 5806OM     OM1 5806   5.503   0.694   4.608
 5807OM     OM1 5807   5.376   0.621   4.815
 5808OM     OM1 5808   5.503   0.548   5.022
 5809OM     OM1 5809   5.376   0.767   5.022
 5810OM     OM1 5810   5.503   0.694   5.848
 5811OM     OM1 5811   5.503   0.987   0.062
 5812OM     OM1 5812   5.376   0.913   0.268
 5813OM     OM1 5813   5.503   0.840   0.475
 5814OM     OM1 5814   5.376   1.060   0.475
 5815OM     OM1 5815   5.503   0.987   1.302
 5816OM     OM1 5816   5.376   0.913   1.508
 5817OM     OM1 5817   5.503   0.840   1.715
 5818OM     OM1 5818   5.376   1.060   1.715
 5819OM     OM1 5819   5.503   0.987   2.542
 5820OM     OM1 5820   5.376   0.913   2.748
 5821OM     OM1 5821   5.503   0.840   2.955
 5822OM     OM1 5822   5.376   1.060   2.955
 5823OM     OM1 5823   5.503   0.987   3.782
 5824OM     OM1 5824   5.376   0.913   3.988
 5825OM     OM1 5825   5.503   0.840   4.195
 5826OM     OM1 5826   5.376   1.060   4.195
 5827OM     OM1 5827   5.503   0.987   5.022
 5828OM     OM1 5828   5.376   0.913   5.228
 5829OM     OM1 5829   5.503   0.840   5.435
 5830OM     OM1 5830   5.376   1.060   5.435
 5831OM     OM1 5831   5.376   1.498   6.055
 5832OM     OM1 5832   5.376   1.644   0.062
 5833OM     OM1 5833   5.503   1.425   0.062
 5834OM     OM1 5834   5.503   1.279   0.475
 5835OM     OM1 5835   5.376   1.206   0.682
 5836OM     OM1 5836   5.376   1.498   1.095
 5837OM     OM1 5837   5.376   1.352   0.888
 5838OM     OM1 5838   5.503   1.571   0.888
 5839OM     OM1 5839   5.503   1.133   0.888
 5840OM     OM1 5840   5.376   1.644   1.302
 5841OM     OM1 5841   5.503   1.425   1.302
 5842OM     OM1 5842   5.503   1.279   1.715
 5843OM     OM1 5843   5.376   1.206   1.922
 5844OM     OM1 5844   5.376   1.352   2.128
 5845OM     OM1 5845   5.503   1.571   2.128
 5846OM     OM1 5846   5.376   1.498   2.335
 5847OM     OM1 5847   5.503   1.133   2.128
 5848OM     OM1 5848   5.376   1.644   2.542
 5849OM     OM1 5849   5.503   1.425   2.542
 5850OM     OM1 5850   5.503   1.279   2.955
 5851OM     OM1 5851   5.376   1.206   3.162
 5852OM     OM1 5852   5.376   1.352   3.368
 5853OM     OM1 5853   5.503   1.571   3.368
 5854OM     OM1 5854   5.376   1.498   3.575
 5855OM     OM1 5855   5.503   1.133   3.368
 5856OM     OM1 5856   5.376   1.644   3.782
 5857OM     OM1 5857   5.503   1.425   3.782
 5858OM     OM1 5858   5.503   1.279   4.195
 5859OM     OM1 5859   5.376   1.206   4.402
 5860OM     OM1 5860   5.376   1.352   4.608
 5861OM     OM1 5861   5.503   1.571   4.608
 5862OM     OM1 5862   5.376   1.498   4.815
 5863OM     OM1 5863   5.503   1.133   4.608
 5864OM     OM1 5864   5.376   1.644   5.022
 5865OM     OM1 5865   5.503   1.425   5.022
 5866OM     OM1 5866   5.503   1.279   5.435
 5867OM     OM1 5867   5.376   1.206   5.642
 5868OM     OM1 5868   5.376   1.352   5.848
 5869OM     OM1 5869   5.503   1.571   5.848
 5870OM     OM1 5870   5.503   1.133   5.848
 5871OM     OM1 5871   5.503   1.864   0.062
 5872OM     OM1 5872   5.376   1.791   0.268
 5873OM     OM1 5873   5.503   1.717   0.475
 5874OM     OM1 5874   5.376   1.937   0.475
 5875OM     OM1 5875   5.503   1.864   1.302
 5876OM     OM1 5876   5.376   1.791   1.508
 5877OM     OM1 5877   5.503   1.717   1.715
 5878OM     OM1 5878   5.376   1.937   1.715
 5879OM     OM1 5879   5.503   1.864   2.542
 5880OM     OM1 5880   5.376   1.791   2.748
 5881OM     OM1 5881   5.503   1.717   2.955
 5882OM     OM1 5882   5.376   1.937   2.955
 5883OM     OM1 5883   5.503   1.864   3.782
 5884OM     OM1 5884   5.376   1.791   3.988
 5885OM     OM1 5885   5.503   1.717   4.195
 5886OM     OM1 5886   5.376   1.937   4.195
 5887OM     OM1 5887   5.503   1.864   5.022
 5888OM     OM1 5888   5.376   1.791   5.228
 5889OM     OM1 5889   5.503   1.717   5.435
 5890OM     OM1 5890   5.376   1.937   5.435
 5891OM     OM1 5891   5.376   2.375   6.055
 5892OM     OM1 5892   5.376   2.521   0.062
 5893OM     OM1 5893   5.503   2.302   0.062
 5894OM     OM1 5894   5.503   2.156   0.475
 5895OM     OM1 5895   5.376   2.083   0.682
 5896OM     OM1 5896   5.503   2.448   0.888
 5897OM     OM1 5897   5.376   2.375   1.095
 5898OM     OM1 5898   5.376   2.229   0.888
 5899OM     OM1 5899   5.503   2.010   0.888
 5900OM     OM1 5900   5.376   2.521   1.302
 5901OM     OM1 5901   5.503   2.302   1.302
 5902OM     OM1 5902   5.503   2.156   1.715
 5903OM     OM1 5903   5.376   2.083   1.922
 5904OM     OM1 5904   5.503   2.448   2.128
 5905OM     OM1 5905   5.376   2.229   2.128
 5906OM     OM1 5906   5.376   2.375   2.335
 5907OM     OM1 5907   5.503   2.010   2.128
 5908OM     OM1 5908   5.376   2.521   2.542
 5909OM     OM1 5909   5.503   2.302   2.542
 5910OM     OM1 5910   5.503   2.156   2.955
 5911OM     OM1 5911   5.376   2.083   3.162
 5912OM     OM1 5912   5.503   2.448   3.368
 5913OM     OM1 5913   5.376   2.229   3.368
 5914OM     OM1 5914   5.376   2.375   3.575
 5915OM     OM1 5915   5.503   2.010   3.368
 5916OM     OM1 5916   5.376   2.521   3.782
 5917OM     OM1 5917   5.503   2.302   3.782
 5918OM     OM1 5918   5.503   2.156   4.195
 5919OM     OM1 5919   5.376   2.083   4.402
 5920OM     OM1 5920   5.503   2.448   4.608
 5921OM     OM1 5921   5.376   2.229   4.608
 5922OM     OM1 5922   5.376   2.375   4.815
 5923OM     OM1 5923   5.503   2.010   4.608
 5924OM     OM1 5924   5.376   2.521   5.022
 5925OM     OM1 5925   5.503   2.302   5.022
 5926OM     OM1 5926   5.503   2.156   5.435
 5927OM     OM1 5927   5.376   2.083   5.642
 5928OM     OM1 5928   5.503   2.448   5.848
 5929OM     OM1 5929   5.376   2.229   5.848
 5930OM     OM1 5930   5.503   2.010   5.848
 5931OM     OM1 5931   5.503   2.741   0.062
 5932OM     OM1 5932   5.376   2.668   0.268
 5933OM     OM1 5933   5.376   2.814   0.475
 5934OM     OM1 5934   5.503   2.594   0.475
 5935OM     OM1 5935   5.503   2.741   1.302
 5936OM     OM1 5936   5.376   2.668   1.508
 5937OM     OM1 5937   5.376   2.814   1.715
 5938OM     OM1 5938   5.503   2.594   1.715
 5939OM     OM1 5939   5.503   2.741   2.542
 5940OM     OM1 5940   5.376   2.668   2.748
 5941OM     OM1 5941   5.376   2.814   2.955
 5942OM     OM1 5942   5.503   2.594   2.955
 5943OM     OM1 5943   5.503   2.741   3.782
 5944OM     OM1 5944   5.376   2.668   3.988
 5945OM     OM1 5945   5.376   2.814   4.195
 5946OM     OM1 5946   5.503   2.594   4.195
 5947OM     OM1 5947   5.503   2.741   5.022
 5948OM     OM1 5948   5.376   2.668   5.228
 5949OM     OM1 5949   5.376   2.814   5.435
 5950OM     OM1 5950   5.503   2.594   5.435
 5951OM     OM1 5951   5.503   3.033   0.475
 5952OM     OM1 5952   5.376   2.960   0.682
 5953OM     OM1 5953   5.376   3.106   0.888
 5954OM     OM1 5954   5.503   2.887   0.888
 5955OM     OM1 5955   5.503   3.033   1.715
 5956OM     OM1 5956   5.376   2.960   1.922
 5957OM     OM1 5957   5.376   3.106   2.128
 5958OM     OM1 5958   5.503   2.887   2.128
 5959OM     OM1 5959   5.503   3.033   2.955
 5960OM     OM1 5960   5.376   2.960   3.162
 5961OM     OM1 5961   5.376   3.106   3.368
 5962OM     OM1 5962   5.503   2.887   3.368
 5963OM     OM1 5963   5.503   3.033   4.195
 5964OM     OM1 5964   5.376   2.960   4.402
 5965OM     OM1 5965   5.376   3.106   4.608
 5966OM     OM1 5966   5.503   2.887   4.608
 5967OM     OM1 5967   5.503   3.033   5.435
 5968OM     OM1 5968   5.376   2.960   5.642
 5969OM     OM1 5969   5.376   3.106   5.848
 5970OM     OM1 5970   5.503   2.887   5.848
 5971OM     OM1 5971   5.376   3.252   6.055
 5972OM     OM1 5972   5.376   3.398   0.062
 5973OM     OM1 5973   5.503   3.179   0.062
 5974OM     OM1 5974   5.503   3.618   0.062
 5975OM     OM1 5975   5.376   3.545   0.268
 5976OM     OM1 5976   5.376   3.691   0.475
 5977OM     OM1 5977   5.503   3.471   0.475
 5978OM     OM1 5978   5.376   3.252   1.095
 5979OM     OM1 5979   5.503   3.325   0.888
 5980OM     OM1 5980   5.376   3.398   1.302
 5981OM     OM1 5981   5.503   3.179   1.302
 5982OM     OM1 5982   5.503   3.618   1.302
 5983OM     OM1 5983   5.376   3.545   1.508
 5984OM     OM1 5984   5.376   3.691   1.715
 5985OM     OM1 5985   5.503   3.471   1.715
 5986OM     OM1 5986   5.503   3.325   2.128
 5987OM     OM1 5987   5.376   3.252   2.335
 5988OM     OM1 5988   5.376   3.398   2.542
 5989OM     OM1 5989   5.503   3.179   2.542
 5990OM     OM1 5990   5.503   3.618   2.542
 5991OM     OM1 5991   5.376   3.545   2.748
 5992OM     OM1 5992   5.376   3.691   2.955
 5993OM     OM1 5993   5.503   3.471   2.955
 5994OM     OM1 5994   5.503   3.325   3.368
 5995OM     OM1 5995   5.376   3.252   3.575
 5996OM     OM1 5996   5.376   3.398   3.782
 5997OM     OM1 5997   5.503   3.179   3.782
 5998OM     OM1 5998   5.503   3.618   3.782
 5999OM     OM1 5999   5.376   3.545   3.988
 6000OM     OM1 6000   5.376   3.691   4.195
 6001OM     OM1 6001   5.503   3.471   4.195
 6002OM     OM1 6002   5.503   3.325   4.608
 6003OM     OM1 6003   5.376   3.252   4.815
 6004OM     OM1 6004   5.376   3.398   5.022
 6005OM     OM1 6005   5.503   3.179   5.022
 6006OM     OM1 6006   5.503   3.618   5.022
 6007OM     OM1 6007   5.376   3.545   5.228
 6008OM     OM1 6008   5.376   3.691   5.435
 6009OM     OM1 6009   5.503   3.471   5.435
 6010OM     OM1 6010   5.503   3.325   5.848
 6011OM     OM1 6011   5.503   3.910   0.475
 6012OM     OM1 6012   5.376   3.837   0.682
 6013OM     OM1 6013   5.376   3.983   0.888
 6014OM     OM1 6014   5.503   3.764   0.888
 6015OM     OM1 6015   5.503   3.910   1.715
 6016OM     OM1 6016   5.376   3.837   1.922
 6017OM     OM1 6017   5.376   3.983   2.128
 6018OM     OM1 6018   5.503   3.764   2.128
 6019OM     OM1 6019   5.503   3.910   2.955
 6020OM     OM1 6020   5.376   3.837   3.162
 6021OM     OM1 6021   5.376   3.983   3.368
 6022OM     OM1 6022   5.503   3.764   3.368
 6023OM     OM1 6023   5.503   3.910   4.195
 6024OM     OM1 6024   5.376   3.837   4.402
 6025OM     OM1 6025   5.376   3.983   4.608
 6026OM     OM1 6026   5.503   3.764   4.608
 6027OM     OM1 6027   5.503   3.910   5.435
 6028OM     OM1 6028   5.376   3.837   5.642
 6029OM     OM1 6029   5.376   3.983   5.848
 6030OM     OM1 6030   5.503   3.764   5.848
 6031OM     OM1 6031   5.376   4.129   6.055
 6032OM     OM1 6032   5.503   4.056   0.062
 6033OM     OM1 6033   5.376   4.275   0.062
 6034OM     OM1 6034   5.376   4.129   1.095
 6035OM     OM1 6035   5.503   4.202   0.888
 6036OM     OM1 6036   5.503   4.056   1.302
 6037OM     OM1 6037   5.376   4.275   1.302
 6038OM     OM1 6038   5.503   4.202   2.128
 6039OM     OM1 6039   5.376   4.129   2.335
 6040OM     OM1 6040   5.503   4.056   2.542
 6041OM     OM1 6041   5.376   4.275   2.542
 6042OM     OM1 6042   5.503   4.202   3.368
 6043OM     OM1 6043   5.376   4.129   3.575
 6044OM     OM1 6044   5.503   4.056   3.782
 6045OM     OM1 6045   5.376   4.275   3.782
 6046OM     OM1 6046   5.503   4.202   4.608
 6047OM     OM1 6047   5.376   4.129   4.815
 6048OM     OM1 6048   5.503   4.056   5.022
 6049OM     OM1 6049   5.376   4.275   5.022
 6050OM     OM1 6050   5.503   4.202   5.848
 6051OM     OM1 6051   5.503   4.495   0.062
 6052OM     OM1 6052   5.376   4.422   0.268
 6053OM     OM1 6053   5.376   4.568   0.475
 6054OM     OM1 6054   5.503   4.348   0.475
 6055OM     OM1 6055   5.503   4.787   0.475
 6056OM     OM1 6056   5.376   4.714   0.682
 6057OM     OM1 6057   5.376   4.860   0.888
 6058OM     OM1 6058   5.503   4.641   0.888
 6059OM     OM1 6059   5.503   4.495   1.302
 6060OM     OM1 6060   5.376   4.422   1.508
 6061OM     OM1 6061   5.376   4.568   1.715
 6062OM     OM1 6062   5.503   4.348   1.715
 6063OM     OM1 6063   5.503   4.787   1.715
 6064OM     OM1 6064   5.376   4.714   1.922
 6065OM     OM1 6065   5.376   4.860   2.128
 6066OM     OM1 6066   5.503   4.641   2.128
 6067OM     OM1 6067   5.503   4.495   2.542
 6068OM     OM1 6068   5.376   4.422   2.748
 6069OM     OM1 6069   5.376   4.568   2.955
 6070OM     OM1 6070   5.503   4.348   2.955
 6071OM     OM1 6071   5.503   4.787   2.955
 6072OM     OM1 6072   5.376   4.714   3.162
 6073OM     OM1 6073   5.376   4.860   3.368
 6074OM     OM1 6074   5.503   4.641   3.368
 6075OM     OM1 6075   5.503   4.495   3.782
 6076OM     OM1 6076   5.376   4.422   3.988
 6077OM     OM1 6077   5.376   4.568   4.195
 6078OM     OM1 6078   5.503   4.348   4.195
 6079OM     OM1 6079   5.503   4.787   4.195
 6080OM     OM1 6080   5.376   4.714   4.402
 6081OM     OM1 6081   5.376   4.860   4.608
 6082OM     OM1 6082   5.503   4.641   4.608
 6083OM     OM1 6083   5.503   4.495   5.022
 6084OM     OM1 6084   5.376   4.422   5.228
 6085OM     OM1 6085   5.376   4.568   5.435
 6086OM     OM1 6086   5.503   4.348   5.435
 6087OM     OM1 6087   5.503   4.787   5.435
 6088OM     OM1 6088   5.376   4.714   5.642
 6089OM     OM1 6089   5.376   4.860   5.848
 6090OM     OM1 6090   5.503   4.641   5.848
 6091OM     OM1 6091   5.376   5.006   6.055
 6092OM     OM1 6092   5.503   4.933   0.062
 6093OM     OM1 6093   5.376   5.152   0.062
 6094OM     OM1 6094   5.376   5.006   1.095
 6095OM     OM1 6095   5.503   5.079   0.888
 6096OM     OM1 6096   5.503   4.933   1.302
 6097OM     OM1 6097   5.376   5.152   1.302
 6098OM     OM1 6098   5.503   5.079   2.128
 6099OM     OM1 6099   5.376   5.006   2.335
 6100OM     OM1 6100   5.503   4.933   2.542
 6101OM     OM1 6101   5.376   5.152   2.542
 6102OM     OM1 6102   5.503   5.079   3.368
 6103OM     OM1 6103   5.376   5.006   3.575
 6104OM     OM1 6104   5.503   4.933   3.782
 6105OM     OM1 6105   5.376   5.152   3.782
 6106OM     OM1 6106   5.503   5.079   4.608
 6107OM     OM1 6107   5.376   5.006   4.815
 6108OM     OM1 6108   5.503   4.933   5.022
 6109OM     OM1 6109   5.376   5.152   5.022
 6110OM     OM1 6110   5.503   5.079   5.848
 6111OM     OM1 6111   5.503   5.372   0.062
 6112OM     OM1 6112   5.376   5.299   0.268
 6113OM     OM1 6113   5.503   5.225   0.475
 6114OM     OM1 6114   5.376   5.445   0.475
 6115OM     OM1 6115   5.503   5.664   0.475
 6116OM     OM1 6116   5.376   5.591   0.682
 6117OM     OM1 6117   5.376   5.737   0.888
 6118OM     OM1 6118   5.503   5.518   0.888
 6119OM     OM1 6119   5.503   5.372   1.302
 6120OM     OM1 6120   5.376   5.299   1.508
 6121OM     OM1 6121   5.503   5.225   1.715
 6122OM     OM1 6122   5.376   5.445   1.715
 6123OM     OM1 6123   5.503   5.664   1.715
 6124OM     OM1 6124   5.376   5.591   1.922
 6125OM     OM1 6125   5.376   5.737   2.128
 6126OM     OM1 6126   5.503   5.518   2.128
 6127OM     OM1 6127   5.503   5.372   2.542
 6128OM     OM1 6128   5.376   5.299   2.748
 6129OM     OM1 6129   5.503   5.225   2.955
 6130OM     OM1 6130   5.376   5.445   2.955
 6131OM     OM1 6131   5.503   5.664   2.955
 6132OM     OM1 6132   5.376   5.591   3.162
 6133OM     OM1 6133   5.376   5.737   3.368
 6134OM     OM1 6134   5.503   5.518   3.368
 6135OM     OM1 6135   5.503   5.372   3.782
 6136OM     OM1 6136   5.376   5.299   3.988
 6137OM     OM1 6137   5.503   5.225   4.195
 6138OM     OM1 6138   5.376   5.445   4.195
 6139OM     OM1 6139   5.503   5.664   4.195
 6140OM     OM1 6140   5.376   5.591   4.402
 6141OM     OM1 6141   5.376   5.737   4.608
 6142OM     OM1 6142   5.503   5.518   4.608
 6143OM     OM1 6143   5.503   5.372   5.022
 6144OM     OM1 6144   5.376   5.299   5.228
 6145OM     OM1 6145   5.503   5.225   5.435
 6146OM     OM1 6146   5.376   5.445   5.435
 6147OM     OM1 6147   5.503   5.664   5.435
 6148OM     OM1 6148   5.376   5.591   5.642
 6149OM     OM1 6149   5.376   5.737   5.848
 6150OM     OM1 6150   5.503   5.518   5.848
 6151OM     OM1 6151   5.376   5.883   6.055
 6152OM     OM1 6152   5.503   5.810   0.062
 6153OM     OM1 6153   5.376   5.883   1.095
 6154OM     OM1 6154   5.503   5.956   0.888
 6155OM     OM1 6155   5.503   5.810   1.302
 6156OM     OM1 6156   5.503   5.956   2.128
 6157OM     OM1 6157   5.376   5.883   2.335
 6158OM     OM1 6158   5.503   5.810   2.542
 6159OM     OM1 6159   5.503   5.956   3.368
 6160OM     OM1 6160   5.376   5.883   3.575
 6161OM     OM1 6161   5.503   5.810   3.782
 6162OM     OM1 6162   5.503   5.956   4.608
 6163OM     OM1 6163   5.376   5.883   4.815
 6164OM     OM1 6164   5.503   5.810   5.022
 6165OM     OM1 6165   5.503   5.956   5.848
 6166OM     OM1 6166   5.756   0.110   0.062
 6167OM     OM1 6167   5.882   0.036   0.268
 6168OM     OM1 6168   5.882   6.029   0.062
 6169OM     OM1 6169   5.629   0.183   6.055
 6170OM     OM1 6170   5.629   0.329   0.062
 6171OM     OM1 6171   5.882   0.183   0.475
 6172OM     OM1 6172   5.756   6.102   0.475
 6173OM     OM1 6173   5.756   0.402   0.475
 6174OM     OM1 6174   5.882   0.329   0.682
 6175OM     OM1 6175   5.882   0.475   0.888
 6176OM     OM1 6176   5.756   0.256   0.888
 6177OM     OM1 6177   5.629   0.183   1.095
 6178OM     OM1 6178   5.629   0.036   0.888
 6179OM     OM1 6179   5.756   0.110   1.302
 6180OM     OM1 6180   5.882   0.036   1.508
 6181OM     OM1 6181   5.882   6.029   1.302
 6182OM     OM1 6182   5.629   0.329   1.302
 6183OM     OM1 6183   5.882   0.183   1.715
 6184OM     OM1 6184   5.756   6.102   1.715
 6185OM     OM1 6185   5.756   0.402   1.715
 6186OM     OM1 6186   5.882   0.329   1.922
 6187OM     OM1 6187   5.882   0.475   2.128
 6188OM     OM1 6188   5.756   0.256   2.128
 6189OM     OM1 6189   5.629   0.036   2.128
 6190OM     OM1 6190   5.629   0.183   2.335
 6191OM     OM1 6191   5.756   0.110   2.542
 6192OM     OM1 6192   5.882   6.029   2.542
 6193OM     OM1 6193   5.882   0.036   2.748
 6194OM     OM1 6194   5.629   0.329   2.542
 6195OM     OM1 6195   5.882   0.183   2.955
 6196OM     OM1 6196   5.756   6.102   2.955
 6197OM     OM1 6197   5.756   0.402   2.955
 6198OM     OM1 6198   5.882   0.329   3.162
 6199OM     OM1 6199   5.882   0.475   3.368
 6200OM     OM1 6200   5.756   0.256   3.368
 6201OM     OM1 6201   5.629   0.036   3.368
 6202OM     OM1 6202   5.629   0.183   3.575
 6203OM     OM1 6203   5.756   0.110   3.782
 6204OM     OM1 6204   5.882   6.029   3.782
 6205OM     OM1 6205   5.882   0.036   3.988
 6206OM     OM1 6206   5.629   0.329   3.782
 6207OM     OM1 6207   5.882   0.183   4.195
 6208OM     OM1 6208   5.756   6.102   4.195
 6209OM     OM1 6209   5.756   0.402   4.195
 6210OM     OM1 6210   5.882   0.329   4.402
 6211OM     OM1 6211   5.882   0.475   4.608
 6212OM     OM1 6212   5.756   0.256   4.608
 6213OM     OM1 6213   5.629   0.036   4.608
 6214OM     OM1 6214   5.629   0.183   4.815
 6215OM     OM1 6215   5.756   0.110   5.022
 6216OM     OM1 6216   5.882   6.029   5.022
 6217OM     OM1 6217   5.882   0.036   5.228
 6218OM     OM1 6218   5.629   0.329   5.022
 6219OM     OM1 6219   5.882   0.183   5.435
 6220OM     OM1 6220   5.756   6.102   5.435
 6221OM     OM1 6221   5.756   0.402   5.435
 6222OM     OM1 6222   5.882   0.329   5.642
 6223OM     OM1 6223   5.882   0.475   5.848
 6224OM     OM1 6224   5.756   0.256   5.848
 6225OM     OM1 6225   5.629   0.036   5.848
 6226OM     OM1 6226   5.882   0.621   6.055
 6227OM     OM1 6227   5.756   0.548   0.062
 6228OM     OM1 6228   5.882   0.767   0.062
 6229OM     OM1 6229   5.629   0.475   0.268
 6230OM     OM1 6230   5.629   0.621   0.475
 6231OM     OM1 6231   5.756   0.840   0.475
 6232OM     OM1 6232   5.629   0.767   0.682
 6233OM     OM1 6233   5.882   0.621   1.095
 6234OM     OM1 6234   5.756   0.694   0.888
 6235OM     OM1 6235   5.629   0.913   0.888
 6236OM     OM1 6236   5.756   0.548   1.302
 6237OM     OM1 6237   5.882   0.767   1.302
 6238OM     OM1 6238   5.629   0.475   1.508
 6239OM     OM1 6239   5.629   0.621   1.715
 6240OM     OM1 6240   5.756   0.840   1.715
 6241OM     OM1 6241   5.629   0.767   1.922
 6242OM     OM1 6242   5.756   0.694   2.128
 6243OM     OM1 6243   5.882   0.621   2.335
 6244OM     OM1 6244   5.629   0.913   2.128
 6245OM     OM1 6245   5.756   0.548   2.542
 6246OM     OM1 6246   5.882   0.767   2.542
 6247OM     OM1 6247   5.629   0.475   2.748
 6248OM     OM1 6248   5.629   0.621   2.955
 6249OM     OM1 6249   5.756   0.840   2.955
 6250OM     OM1 6250   5.629   0.767   3.162
 6251OM     OM1 6251   5.756   0.694   3.368
 6252OM     OM1 6252   5.882   0.621   3.575
 6253OM     OM1 6253   5.629   0.913   3.368
 6254OM     OM1 6254   5.756   0.548   3.782
 6255OM     OM1 6255   5.882   0.767   3.782
 6256OM     OM1 6256   5.629   0.475   3.988
 6257OM     OM1 6257   5.629   0.621   4.195
 6258OM     OM1 6258   5.756   0.840   4.195
 6259OM     OM1 6259   5.629   0.767   4.402
 6260OM     OM1 6260   5.756   0.694   4.608
 6261OM     OM1 6261   5.882   0.621   4.815
 6262OM     OM1 6262   5.629   0.913   4.608
 6263OM     OM1 6263   5.756   0.548   5.022
 6264OM     OM1 6264   5.882   0.767   5.022
 6265OM     OM1 6265   5.629   0.475   5.228
 6266OM     OM1 6266   5.629   0.621   5.435
 6267OM     OM1 6267   5.756   0.840   5.435
 6268OM     OM1 6268   5.629   0.767   5.642
 6269OM     OM1 6269   5.756   0.694   5.848
 6270OM     OM1 6270   5.629   0.913   5.848
 6271OM     OM1 6271   5.756   0.987   0.062
 6272OM     OM1 6272   5.882   0.913   0.268
 6273OM     OM1 6273   5.629   1.060   6.055
 6274OM     OM1 6274   5.629   1.206   0.062
 6275OM     OM1 6275   5.882   1.060   0.475
 6276OM     OM1 6276   5.629   1.060   1.095
 6277OM     OM1 6277   5.756   1.133   0.888
 6278OM     OM1 6278   5.756   0.987   1.302
 6279OM     OM1 6279   5.882   0.913   1.508
 6280OM     OM1 6280   5.629   1.206   1.302
 6281OM     OM1 6281   5.882   1.060   1.715
 6282OM     OM1 6282   5.756   1.133   2.128
 6283OM     OM1 6283   5.629   1.060   2.335
 6284OM     OM1 6284   5.756   0.987   2.542
 6285OM     OM1 6285   5.882   0.913   2.748
 6286OM     OM1 6286   5.629   1.206   2.542
 6287OM     OM1 6287   5.882   1.060   2.955
 6288OM     OM1 6288   5.756   1.133   3.368
 6289OM     OM1 6289   5.629   1.060   3.575
 6290OM     OM1 6290   5.756   0.987   3.782
 6291OM     OM1 6291   5.882   0.913   3.988
 6292OM     OM1 6292   5.629   1.206   3.782
 6293OM     OM1 6293   5.882   1.060   4.195
 6294OM     OM1 6294   5.756   1.133   4.608
 6295OM     OM1 6295   5.629   1.060   4.815
 6296OM     OM1 6296   5.756   0.987   5.022
 6297OM     OM1 6297   5.882   0.913   5.228
 6298OM     OM1 6298   5.629   1.206   5.022
 6299OM     OM1 6299   5.882   1.060   5.435
 6300OM     OM1 6300   5.756   1.133   5.848
 6301OM     OM1 6301   5.882   1.498   6.055
 6302OM     OM1 6302   5.882   1.644   0.062
 6303OM     OM1 6303   5.756   1.425   0.062
 6304OM     OM1 6304   5.629   1.352   0.268
 6305OM     OM1 6305   5.756   1.279   0.475
 6306OM     OM1 6306   5.882   1.206   0.682
 6307OM     OM1 6307   5.629   1.498   0.475
 6308OM     OM1 6308   5.882   1.498   1.095
 6309OM     OM1 6309   5.882   1.352   0.888
 6310OM     OM1 6310   5.756   1.571   0.888
 6311OM     OM1 6311   5.882   1.644   1.302
 6312OM     OM1 6312   5.756   1.425   1.302
 6313OM     OM1 6313   5.629   1.352   1.508
 6314OM     OM1 6314   5.756   1.279   1.715
 6315OM     OM1 6315   5.882   1.206   1.922
 6316OM     OM1 6316   5.629   1.498   1.715
 6317OM     OM1 6317   5.882   1.352   2.128
 6318OM     OM1 6318   5.756   1.571   2.128
 6319OM     OM1 6319   5.882   1.498   2.335
 6320OM     OM1 6320   5.882   1.644   2.542
 6321OM     OM1 6321   5.756   1.425   2.542
 6322OM     OM1 6322   5.629   1.352   2.748
 6323OM     OM1 6323   5.756   1.279   2.955
 6324OM     OM1 6324   5.882   1.206   3.162
 6325OM     OM1 6325   5.629   1.498   2.955
 6326OM     OM1 6326   5.882   1.352   3.368
 6327OM     OM1 6327   5.756   1.571   3.368
 6328OM     OM1 6328   5.882   1.498   3.575
 6329OM     OM1 6329   5.882   1.644   3.782
 6330OM     OM1 6330   5.756   1.425   3.782
 6331OM     OM1 6331   5.629   1.352   3.988
 6332OM     OM1 6332   5.756   1.279   4.195
 6333OM     OM1 6333   5.882   1.206   4.402
 6334OM     OM1 6334   5.629   1.498   4.195
 6335OM     OM1 6335   5.882   1.352   4.608
 6336OM     OM1 6336   5.756   1.571   4.608
 6337OM     OM1 6337   5.882   1.498   4.815
 6338OM     OM1 6338   5.882   1.644   5.022
 6339OM     OM1 6339   5.756   1.425   5.022
 6340OM     OM1 6340   5.629   1.352   5.228
 6341OM     OM1 6341   5.756   1.279   5.435
 6342OM     OM1 6342   5.882   1.206   5.642
 6343OM     OM1 6343   5.629   1.498   5.435
 6344OM     OM1 6344   5.882   1.352   5.848
 6345OM     OM1 6345   5.756   1.571   5.848
 6346OM     OM1 6346   5.756   1.864   0.062
 6347OM     OM1 6347   5.882   1.791   0.268
 6348OM     OM1 6348   5.629   1.937   6.055
 6349OM     OM1 6349   5.629   2.083   0.062
 6350OM     OM1 6350   5.756   1.717   0.475
 6351OM     OM1 6351   5.629   1.644   0.682
 6352OM     OM1 6352   5.882   1.937   0.475
 6353OM     OM1 6353   5.629   1.791   0.888
 6354OM     OM1 6354   5.756   2.010   0.888
 6355OM     OM1 6355   5.629   1.937   1.095
 6356OM     OM1 6356   5.756   1.864   1.302
 6357OM     OM1 6357   5.882   1.791   1.508
 6358OM     OM1 6358   5.629   2.083   1.302
 6359OM     OM1 6359   5.756   1.717   1.715
 6360OM     OM1 6360   5.629   1.644   1.922
 6361OM     OM1 6361   5.882   1.937   1.715
 6362OM     OM1 6362   5.629   1.791   2.128
 6363OM     OM1 6363   5.756   2.010   2.128
 6364OM     OM1 6364   5.629   1.937   2.335
 6365OM     OM1 6365   5.756   1.864   2.542
 6366OM     OM1 6366   5.882   1.791   2.748
 6367OM     OM1 6367   5.629   2.083   2.542
 6368OM     OM1 6368   5.756   1.717   2.955
 6369OM     OM1 6369   5.629   1.644   3.162
 6370OM     OM1 6370   5.882   1.937   2.955
 6371OM     OM1 6371   5.629   1.791   3.368
 6372OM     OM1 6372   5.756   2.010   3.368
 6373OM     OM1 6373   5.629   1.937   3.575
 6374OM     OM1 6374   5.756   1.864   3.782
 6375OM     OM1 6375   5.882   1.791   3.988
 6376OM     OM1 6376   5.629   2.083   3.782
 6377OM     OM1 6377   5.756   1.717   4.195
 6378OM     OM1 6378   5.629   1.644   4.402
 6379OM     OM1 6379   5.882   1.937   4.195
 6380OM     OM1 6380   5.629   1.791   4.608
 6381OM     OM1 6381   5.756   2.010   4.608
 6382OM     OM1 6382   5.629   1.937   4.815
 6383OM     OM1 6383   5.756   1.864   5.022
 6384OM     OM1 6384   5.882   1.791   5.228
 6385OM     OM1 6385   5.629   2.083   5.022
 6386OM     OM1 6386   5.756   1.717   5.435
 6387OM     OM1 6387   5.629   1.644   5.642
 6388OM     OM1 6388   5.882   1.937   5.435
 6389OM     OM1 6389   5.629   1.791   5.848
 6390OM     OM1 6390   5.756   2.010   5.848
 6391OM     OM1 6391   5.882   2.375   6.055
 6392OM     OM1 6392   5.882   2.521   0.062
 6393OM     OM1 6393   5.756   2.302   0.062
 6394OM     OM1 6394   5.629   2.229   0.268
 6395OM     OM1 6395   5.756   2.156   0.475
 6396OM     OM1 6396   5.882   2.083   0.682
 6397OM     OM1 6397   5.629   2.375   0.475
 6398OM     OM1 6398   5.756   2.448   0.888
 6399OM     OM1 6399   5.882   2.375   1.095
 6400OM     OM1 6400   5.882   2.229   0.888
 6401OM     OM1 6401   5.882   2.521   1.302
 6402OM     OM1 6402   5.756   2.302   1.302
 6403OM     OM1 6403   5.629   2.229   1.508
 6404OM     OM1 6404   5.756   2.156   1.715
 6405OM     OM1 6405   5.882   2.083   1.922
 6406OM     OM1 6406   5.629   2.375   1.715
 6407OM     OM1 6407   5.756   2.448   2.128
 6408OM     OM1 6408   5.882   2.229   2.128
 6409OM     OM1 6409   5.882   2.375   2.335
 6410OM     OM1 6410   5.882   2.521   2.542
 6411OM     OM1 6411   5.756   2.302   2.542
 6412OM     OM1 6412   5.629   2.229   2.748
 6413OM     OM1 6413   5.756   2.156   2.955
 6414OM     OM1 6414   5.882   2.083   3.162
 6415OM     OM1 6415   5.629   2.375   2.955
 6416OM     OM1 6416   5.756   2.448   3.368
 6417OM     OM1 6417   5.882   2.229   3.368
 6418OM     OM1 6418   5.882   2.375   3.575
 6419OM     OM1 6419   5.882   2.521   3.782
 6420OM     OM1 6420   5.756   2.302   3.782
 6421OM     OM1 6421   5.629   2.229   3.988
 6422OM     OM1 6422   5.756   2.156   4.195
 6423OM     OM1 6423   5.882   2.083   4.402
 6424OM     OM1 6424   5.629   2.375   4.195
 6425OM     OM1 6425   5.756   2.448   4.608
 6426OM     OM1 6426   5.882   2.229   4.608
 6427OM     OM1 6427   5.882   2.375   4.815
 6428OM     OM1 6428   5.882   2.521   5.022
 6429OM     OM1 6429   5.756   2.302   5.022
 6430OM     OM1 6430   5.629   2.229   5.228
 6431OM     OM1 6431   5.756   2.156   5.435
 6432OM     OM1 6432   5.882   2.083   5.642
 6433OM     OM1 6433   5.629   2.375   5.435
 6434OM     OM1 6434   5.756   2.448   5.848
 6435OM     OM1 6435   5.882   2.229   5.848
 6436OM     OM1 6436   5.756   2.741   0.062
 6437OM     OM1 6437   5.882   2.668   0.268
 6438OM     OM1 6438   5.756   2.594   0.475
 6439OM     OM1 6439   5.629   2.521   0.682
 6440OM     OM1 6440   5.882   2.814   0.475
 6441OM     OM1 6441   5.629   2.668   0.888
 6442OM     OM1 6442   5.756   2.741   1.302
 6443OM     OM1 6443   5.882   2.668   1.508
 6444OM     OM1 6444   5.756   2.594   1.715
 6445OM     OM1 6445   5.629   2.521   1.922
 6446OM     OM1 6446   5.882   2.814   1.715
 6447OM     OM1 6447   5.629   2.668   2.128
 6448OM     OM1 6448   5.756   2.741   2.542
 6449OM     OM1 6449   5.882   2.668   2.748
 6450OM     OM1 6450   5.756   2.594   2.955
 6451OM     OM1 6451   5.629   2.521   3.162
 6452OM     OM1 6452   5.882   2.814   2.955
 6453OM     OM1 6453   5.629   2.668   3.368
 6454OM     OM1 6454   5.756   2.741   3.782
 6455OM     OM1 6455   5.882   2.668   3.988
 6456OM     OM1 6456   5.756   2.594   4.195
 6457OM     OM1 6457   5.629   2.521   4.402
 6458OM     OM1 6458   5.882   2.814   4.195
 6459OM     OM1 6459   5.629   2.668   4.608
 6460OM     OM1 6460   5.756   2.741   5.022
 6461OM     OM1 6461   5.882   2.668   5.228
 6462OM     OM1 6462   5.756   2.594   5.435
 6463OM     OM1 6463   5.629   2.521   5.642
 6464OM     OM1 6464   5.882   2.814   5.435
 6465OM     OM1 6465   5.629   2.668   5.848
 6466OM     OM1 6466   5.629   2.814   6.055
 6467OM     OM1 6467   5.629   2.960   0.062
 6468OM     OM1 6468   5.756   3.179   0.062
 6469OM     OM1 6469   5.629   3.106   0.268
 6470OM     OM1 6470   5.756   3.033   0.475
 6471OM     OM1 6471   5.882   2.960   0.682
 6472OM     OM1 6472   5.629   3.252   0.475
 6473OM     OM1 6473   5.882   3.106   0.888
 6474OM     OM1 6474   5.756   2.887   0.888
 6475OM     OM1 6475   5.629   2.814   1.095
 6476OM     OM1 6476   5.629   2.960   1.302
 6477OM     OM1 6477   5.756   3.179   1.302
 6478OM     OM1 6478   5.629   3.106   1.508
 6479OM     OM1 6479   5.756   3.033   1.715
 6480OM     OM1 6480   5.882   2.960   1.922
 6481OM     OM1 6481   5.629   3.252   1.715
 6482OM     OM1 6482   5.882   3.106   2.128
 6483OM     OM1 6483   5.756   2.887   2.128
 6484OM     OM1 6484   5.629   2.814   2.335
 6485OM     OM1 6485   5.629   2.960   2.542
 6486OM     OM1 6486   5.756   3.179   2.542
 6487OM     OM1 6487   5.629   3.106   2.748
 6488OM     OM1 6488   5.756   3.033   2.955
 6489OM     OM1 6489   5.882   2.960   3.162
 6490OM     OM1 6490   5.629   3.252   2.955
 6491OM     OM1 6491   5.882   3.106   3.368
 6492OM     OM1 6492   5.756   2.887   3.368
 6493OM     OM1 6493   5.629   2.814   3.575
 6494OM     OM1 6494   5.629   2.960   3.782
 6495OM     OM1 6495   5.756   3.179   3.782
 6496OM     OM1 6496   5.629   3.106   3.988
 6497OM     OM1 6497   5.756   3.033   4.195
 6498OM     OM1 6498   5.882   2.960   4.402
 6499OM     OM1 6499   5.629   3.252   4.195
 6500OM     OM1 6500   5.882   3.106   4.608
 6501OM     OM1 6501   5.756   2.887   4.608
 6502OM     OM1 6502   5.629   2.814   4.815
 6503OM     OM1 6503   5.629   2.960   5.022
 6504OM     OM1 6504   5.756   3.179   5.022
 6505OM     OM1 6505   5.629   3.106   5.228
 6506OM     OM1 6506   5.756   3.033   5.435
 6507OM     OM1 6507   5.882   2.960   5.642
 6508OM     OM1 6508   5.629   3.252   5.435
 6509OM     OM1 6509   5.882   3.106   5.848
 6510OM     OM1 6510   5.756   2.887   5.848
 6511OM     OM1 6511   5.882   3.252   6.055
 6512OM     OM1 6512   5.882   3.398   0.062
 6513OM     OM1 6513   5.756   3.618   0.062
 6514OM     OM1 6514   5.882   3.545   0.268
 6515OM     OM1 6515   5.756   3.471   0.475
 6516OM     OM1 6516   5.629   3.398   0.682
 6517OM     OM1 6517   5.882   3.691   0.475
 6518OM     OM1 6518   5.882   3.252   1.095
 6519OM     OM1 6519   5.756   3.325   0.888
 6520OM     OM1 6520   5.629   3.545   0.888
 6521OM     OM1 6521   5.882   3.398   1.302
 6522OM     OM1 6522   5.756   3.618   1.302
 6523OM     OM1 6523   5.882   3.545   1.508
 6524OM     OM1 6524   5.756   3.471   1.715
 6525OM     OM1 6525   5.629   3.398   1.922
 6526OM     OM1 6526   5.882   3.691   1.715
 6527OM     OM1 6527   5.756   3.325   2.128
 6528OM     OM1 6528   5.882   3.252   2.335
 6529OM     OM1 6529   5.629   3.545   2.128
 6530OM     OM1 6530   5.882   3.398   2.542
 6531OM     OM1 6531   5.756   3.618   2.542
 6532OM     OM1 6532   5.882   3.545   2.748
 6533OM     OM1 6533   5.756   3.471   2.955
 6534OM     OM1 6534   5.629   3.398   3.162
 6535OM     OM1 6535   5.882   3.691   2.955
 6536OM     OM1 6536   5.756   3.325   3.368
 6537OM     OM1 6537   5.882   3.252   3.575
 6538OM     OM1 6538   5.629   3.545   3.368
 6539OM     OM1 6539   5.882   3.398   3.782
 6540OM     OM1 6540   5.756   3.618   3.782
 6541OM     OM1 6541   5.882   3.545   3.988
 6542OM     OM1 6542   5.756   3.471   4.195
 6543OM     OM1 6543   5.629   3.398   4.402
 6544OM     OM1 6544   5.882   3.691   4.195
 6545OM     OM1 6545   5.756   3.325   4.608
 6546OM     OM1 6546   5.882   3.252   4.815
 6547OM     OM1 6547   5.629   3.545   4.608
 6548OM     OM1 6548   5.882   3.398   5.022
 6549OM     OM1 6549   5.756   3.618   5.022
 6550OM     OM1 6550   5.882   3.545   5.228
 6551OM     OM1 6551   5.756   3.471   5.435
 6552OM     OM1 6552   5.629   3.398   5.642
 6553OM     OM1 6553   5.882   3.691   5.435
 6554OM     OM1 6554   5.756   3.325   5.848
 6555OM     OM1 6555   5.629   3.545   5.848
 6556OM     OM1 6556   5.629   3.691   6.055
 6557OM     OM1 6557   5.629   3.837   0.062
 6558OM     OM1 6558   5.756   4.056   0.062
 6559OM     OM1 6559   5.629   3.983   0.268
 6560OM     OM1 6560   5.756   3.910   0.475
 6561OM     OM1 6561   5.882   3.837   0.682
 6562OM     OM1 6562   5.629   4.129   0.475
 6563OM     OM1 6563   5.882   3.983   0.888
 6564OM     OM1 6564   5.756   3.764   0.888
 6565OM     OM1 6565   5.629   3.691   1.095
 6566OM     OM1 6566   5.629   3.837   1.302
 6567OM     OM1 6567   5.756   4.056   1.302
 6568OM     OM1 6568   5.629   3.983   1.508
 6569OM     OM1 6569   5.756   3.910   1.715
 6570OM     OM1 6570   5.882   3.837   1.922
 6571OM     OM1 6571   5.629   4.129   1.715
 6572OM     OM1 6572   5.882   3.983   2.128
 6573OM     OM1 6573   5.756   3.764   2.128
 6574OM     OM1 6574   5.629   3.691   2.335
 6575OM     OM1 6575   5.629   3.837   2.542
 6576OM     OM1 6576   5.756   4.056   2.542
 6577OM     OM1 6577   5.629   3.983   2.748
 6578OM     OM1 6578   5.756   3.910   2.955
 6579OM     OM1 6579   5.882   3.837   3.162
 6580OM     OM1 6580   5.629   4.129   2.955
 6581OM     OM1 6581   5.882   3.983   3.368
 6582OM     OM1 6582   5.756   3.764   3.368
 6583OM     OM1 6583   5.629   3.691   3.575
 6584OM     OM1 6584   5.629   3.837   3.782
 6585OM     OM1 6585   5.756   4.056   3.782
 6586OM     OM1 6586   5.629   3.983   3.988
 6587OM     OM1 6587   5.756   3.910   4.195
 6588OM     OM1 6588   5.882   3.837   4.402
 6589OM     OM1 6589   5.629   4.129   4.195
 6590OM     OM1 6590   5.882   3.983   4.608
 6591OM     OM1 6591   5.756   3.764   4.608
 6592OM     OM1 6592   5.629   3.691   4.815
 6593OM     OM1 6593   5.629   3.837   5.022
 6594OM     OM1 6594   5.756   4.056   5.022
 6595OM     OM1 6595   5.629   3.983   5.228
 6596OM     OM1 6596   5.756   3.910   5.435
 6597OM     OM1 6597   5.882   3.837   5.642
 6598OM     OM1 6598   5.629   4.129   5.435
 6599OM     OM1 6599   5.882   3.983   5.848
 6600OM     OM1 6600   5.756   3.764   5.848
 6601OM     OM1 6601   5.882   4.129   6.055
 6602OM     OM1 6602   5.882   4.275   0.062
 6603OM     OM1 6603   5.756   4.348   0.475
 6604OM     OM1 6604   5.629   4.275   0.682
 6605OM     OM1 6605   5.882   4.129   1.095
 6606OM     OM1 6606   5.756   4.202   0.888
 6607OM     OM1 6607   5.629   4.422   0.888
 6608OM     OM1 6608   5.882   4.275   1.302
 6609OM     OM1 6609   5.756   4.348   1.715
 6610OM     OM1 6610   5.629   4.275   1.922
 6611OM     OM1 6611   5.756   4.202   2.128
 6612OM     OM1 6612   5.882   4.129   2.335
 6613OM     OM1 6613   5.629   4.422   2.128
 6614OM     OM1 6614   5.882   4.275   2.542
 6615OM     OM1 6615   5.756   4.348   2.955
 6616OM     OM1 6616   5.629   4.275   3.162
 6617OM     OM1 6617   5.756   4.202   3.368
 6618OM     OM1 6618   5.882   4.129   3.575
 6619OM     OM1 6619   5.629   4.422   3.368
 6620OM     OM1 6620   5.882   4.275   3.782
 6621OM     OM1 6621   5.756   4.348   4.195
 6622OM     OM1 6622   5.629   4.275   4.402
 6623OM     OM1 6623   5.756   4.202   4.608
 6624OM     OM1 6624   5.882   4.129   4.815
 6625OM     OM1 6625   5.629   4.422   4.608
 6626OM     OM1 6626   5.882   4.275   5.022
 6627OM     OM1 6627   5.756   4.348   5.435
 6628OM     OM1 6628   5.629   4.275   5.642
 6629OM     OM1 6629   5.756   4.202   5.848
 6630OM     OM1 6630   5.629   4.422   5.848
 6631OM     OM1 6631   5.756   4.495   0.062
 6632OM     OM1 6632   5.882   4.422   0.268
 6633OM     OM1 6633   5.629   4.568   6.055
 6634OM     OM1 6634   5.629   4.714   0.062
 6635OM     OM1 6635   5.882   4.568   0.475
 6636OM     OM1 6636   5.756   4.787   0.475
 6637OM     OM1 6637   5.882   4.714   0.682
 6638OM     OM1 6638   5.882   4.860   0.888
 6639OM     OM1 6639   5.756   4.641   0.888
 6640OM     OM1 6640   5.629   4.568   1.095
 6641OM     OM1 6641   5.756   4.495   1.302
 6642OM     OM1 6642   5.882   4.422   1.508
 6643OM     OM1 6643   5.629   4.714   1.302
 6644OM     OM1 6644   5.882   4.568   1.715
 6645OM     OM1 6645   5.756   4.787   1.715
 6646OM     OM1 6646   5.882   4.714   1.922
 6647OM     OM1 6647   5.882   4.860   2.128
 6648OM     OM1 6648   5.756   4.641   2.128
 6649OM     OM1 6649   5.629   4.568   2.335
 6650OM     OM1 6650   5.756   4.495   2.542
 6651OM     OM1 6651   5.882   4.422   2.748
 6652OM     OM1 6652   5.629   4.714   2.542
 6653OM     OM1 6653   5.882   4.568   2.955
 6654OM     OM1 6654   5.756   4.787   2.955
 6655OM     OM1 6655   5.882   4.714   3.162
 6656OM     OM1 6656   5.882   4.860   3.368
 6657OM     OM1 6657   5.756   4.641   3.368
 6658OM     OM1 6658   5.629   4.568   3.575
 6659OM     OM1 6659   5.756   4.495   3.782
 6660OM     OM1 6660   5.882   4.422   3.988
 6661OM     OM1 6661   5.629   4.714   3.782
 6662OM     OM1 6662   5.882   4.568   4.195
 6663OM     OM1 6663   5.756   4.787   4.195
 6664OM     OM1 6664   5.882   4.714   4.402
 6665OM     OM1 6665   5.882   4.860   4.608
 6666OM     OM1 6666   5.756   4.641   4.608
 6667OM     OM1 6667   5.629   4.568   4.815
 6668OM     OM1 6668   5.756   4.495   5.022
 6669OM     OM1 6669   5.882   4.422   5.228
 6670OM     OM1 6670   5.629   4.714   5.022
 6671OM     OM1 6671   5.882   4.568   5.435
 6672OM     OM1 6672   5.756   4.787   5.435
 6673OM     OM1 6673   5.882   4.714   5.642
 6674OM     OM1 6674   5.882   4.860   5.848
 6675OM     OM1 6675   5.756   4.641   5.848
 6676OM     OM1 6676   5.882   5.006   6.055
 6677OM     OM1 6677   5.756   4.933   0.062
 6678OM     OM1 6678   5.882   5.152   0.062
 6679OM     OM1 6679   5.629   4.860   0.268
 6680OM     OM1 6680   5.629   5.006   0.475
 6681OM     OM1 6681   5.756   5.225   0.475
 6682OM     OM1 6682   5.629   5.152   0.682
 6683OM     OM1 6683   5.882   5.006   1.095
 6684OM     OM1 6684   5.756   5.079   0.888
 6685OM     OM1 6685   5.629   5.299   0.888
 6686OM     OM1 6686   5.756   4.933   1.302
 6687OM     OM1 6687   5.882   5.152   1.302
 6688OM     OM1 6688   5.629   4.860   1.508
 6689OM     OM1 6689   5.629   5.006   1.715
 6690OM     OM1 6690   5.756   5.225   1.715
 6691OM     OM1 6691   5.629   5.152   1.922
 6692OM     OM1 6692   5.756   5.079   2.128
 6693OM     OM1 6693   5.882   5.006   2.335
 6694OM     OM1 6694   5.629   5.299   2.128
 6695OM     OM1 6695   5.756   4.933   2.542
 6696OM     OM1 6696   5.882   5.152   2.542
 6697OM     OM1 6697   5.629   4.860   2.748
 6698OM     OM1 6698   5.629   5.006   2.955
 6699OM     OM1 6699   5.756   5.225   2.955
 6700OM     OM1 6700   5.629   5.152   3.162
 6701OM     OM1 6701   5.756   5.079   3.368
 6702OM     OM1 6702   5.882   5.006   3.575
 6703OM     OM1 6703   5.629   5.299   3.368
 6704OM     OM1 6704   5.756   4.933   3.782
 6705OM     OM1 6705   5.882   5.152   3.782
 6706OM     OM1 6706   5.629   4.860   3.988
 6707OM     OM1 6707   5.629   5.006   4.195
 6708OM     OM1 6708   5.756   5.225   4.195
 6709OM     OM1 6709   5.629   5.152   4.402
 6710OM     OM1 6710   5.756   5.079   4.608
 6711OM     OM1 6711   5.882   5.006   4.815
 6712OM     OM1 6712   5.629   5.299   4.608
 6713OM     OM1 6713   5.756   4.933   5.022
 6714OM     OM1 6714   5.882   5.152   5.022
 6715OM     OM1 6715   5.629   4.860   5.228
 6716OM     OM1 6716   5.629   5.006   5.435
 6717OM     OM1 6717   5.756   5.225   5.435
 6718OM     OM1 6718   5.629   5.152   5.642
 6719OM     OM1 6719   5.756   5.079   5.848
 6720OM     OM1 6720   5.629   5.299   5.848
 6721OM     OM1 6721   5.756   5.372   0.062
 6722OM     OM1 6722   5.882   5.299   0.268
 6723OM     OM1 6723   5.629   5.445   6.055
 6724OM     OM1 6724   5.629   5.591   0.062
 6725OM     OM1 6725   5.882   5.445   0.475
 6726OM     OM1 6726   5.756   5.664   0.475
 6727OM     OM1 6727   5.882   5.591   0.682
 6728OM     OM1 6728   5.882   5.737   0.888
 6729OM     OM1 6729   5.756   5.518   0.888
 6730OM     OM1 6730   5.629   5.445   1.095
 6731OM     OM1 6731   5.756   5.372   1.302
 6732OM     OM1 6732   5.882   5.299   1.508
 6733OM     OM1 6733   5.629   5.591   1.302
 6734OM     OM1 6734   5.882   5.445   1.715
 6735OM     OM1 6735   5.756   5.664   1.715
 6736OM     OM1 6736   5.882   5.591   1.922
 6737OM     OM1 6737   5.882   5.737   2.128
 6738OM     OM1 6738   5.756   5.518   2.128
 6739OM     OM1 6739   5.629   5.445   2.335
 6740OM     OM1 6740   5.756   5.372   2.542
 6741OM     OM1 6741   5.882   5.299   2.748
 6742OM     OM1 6742   5.629   5.591   2.542
 6743OM     OM1 6743   5.882   5.445   2.955
 6744OM     OM1 6744   5.756   5.664   2.955
 6745OM     OM1 6745   5.882   5.591   3.162
 6746OM     OM1 6746   5.882   5.737   3.368
 6747OM     OM1 6747   5.756   5.518   3.368
 6748OM     OM1 6748   5.629   5.445   3.575
 6749OM     OM1 6749   5.756   5.372   3.782
 6750OM     OM1 6750   5.882   5.299   3.988
 6751OM     OM1 6751   5.629   5.591   3.782
 6752OM     OM1 6752   5.882   5.445   4.195
 6753OM     OM1 6753   5.756   5.664   4.195
 6754OM     OM1 6754   5.882   5.591   4.402
 6755OM     OM1 6755   5.882   5.737   4.608
 6756OM     OM1 6756   5.756   5.518   4.608
 6757OM     OM1 6757   5.629   5.445   4.815
 6758OM     OM1 6758   5.756   5.372   5.022
 6759OM     OM1 6759   5.882   5.299   5.228
 6760OM     OM1 6760   5.629   5.591   5.022
 6761OM     OM1 6761   5.882   5.445   5.435
 6762OM     OM1 6762   5.756   5.664   5.435
 6763OM     OM1 6763   5.882   5.591   5.642
 6764OM     OM1 6764   5.882   5.737   5.848
 6765OM     OM1 6765   5.756   5.518   5.848
 6766OM     OM1 6766   5.882   5.883   6.055
 6767OM     OM1 6767   5.756   5.810   0.062
 6768OM     OM1 6768   5.629   5.737   0.268
 6769OM     OM1 6769   5.629   5.883   0.475
 6770OM     OM1 6770   5.629   6.029   0.682
 6771OM     OM1 6771   5.882   5.883   1.095
 6772OM     OM1 6772   5.756   5.956   0.888
 6773OM     OM1 6773   5.756   5.810   1.302
 6774OM     OM1 6774   5.629   5.737   1.508
 6775OM     OM1 6775   5.629   5.883   1.715
 6776OM     OM1 6776   5.629   6.029   1.922
 6777OM     OM1 6777   5.756   5.956   2.128
 6778OM     OM1 6778   5.882   5.883   2.335
 6779OM     OM1 6779   5.756   5.810   2.542
 6780OM     OM1 6780   5.629   5.737   2.748
 6781OM     OM1 6781   5.629   5.883   2.955
 6782OM     OM1 6782   5.629   6.029   3.162
 6783OM     OM1 6783   5.756   5.956   3.368
 6784OM     OM1 6784   5.882   5.883   3.575
 6785OM     OM1 6785   5.756   5.810   3.782
 6786OM     OM1 6786   5.629   5.737   3.988
 6787OM     OM1 6787   5.629   5.883   4.195
 6788OM     OM1 6788   5.629   6.029   4.402
 6789OM     OM1 6789   5.756   5.956   4.608
 6790OM     OM1 6790   5.882   5.883   4.815
 6791OM     OM1 6791   5.756   5.810   5.022
 6792OM     OM1 6792   5.629   5.737   5.228
 6793OM     OM1 6793   5.629   5.883   5.435
 6794OM     OM1 6794   5.629   6.029   5.642
 6795OM     OM1 6795   5.756   5.956   5.848
 6796SI     SI1 6796   0.316   0.036   0.113
 6797SI     SI1 6797   0.063   0.183   0.010
 6798SI     SI1 6798   0.316   0.036   0.423
 6799SI     SI1 6799   0.316   0.329   0.527
 6800SI     SI1 6800   0.316   0.329   0.837
 6801SI     SI1 6801   0.063   0.183   0.940
 6802SI     SI1 6802   0.316   0.036   1.353
 6803SI     SI1 6803   0.063   0.183   1.250
 6804SI     SI1 6804   0.316   0.036   1.663
 6805SI     SI1 6805   0.316   0.329   1.767
 6806SI     SI1 6806   0.316   0.329   2.077
 6807SI     SI1 6807   0.063   0.183   2.180
 6808SI     SI1 6808   0.316   0.036   2.593
 6809SI     SI1 6809   0.063   0.183   2.490
 6810SI     SI1 6810   0.316   0.036   2.903
 6811SI     SI1 6811   0.316   0.329   3.007
 6812SI     SI1 6812   0.316   0.329   3.317
 6813SI     SI1 6813   0.063   0.183   3.420
 6814SI     SI1 6814   0.316   0.036   3.833
 6815SI     SI1 6815   0.063   0.183   3.730
 6816SI     SI1 6816   0.316   0.036   4.143
 6817SI     SI1 6817   0.316   0.329   4.247
 6818SI     SI1 6818   0.316   0.329   4.557
 6819SI     SI1 6819   0.063   0.183   4.660
 6820SI     SI1 6820   0.316   0.036   5.073
 6821SI     SI1 6821   0.063   0.183   4.970
 6822SI     SI1 6822   0.316   0.036   5.383
 6823SI     SI1 6823   0.316   0.329   5.487
 6824SI     SI1 6824   0.316   0.329   5.797
 6825SI     SI1 6825   0.063   0.183   5.900
 6826SI     SI1 6826   0.316   0.621   0.010
 6827SI     SI1 6827   0.063   0.475   0.113
 6828SI     SI1 6828   0.063   0.475   0.423
 6829SI     SI1 6829   0.063   0.767   0.527
 6830SI     SI1 6830   0.316   0.621   0.940
 6831SI     SI1 6831   0.063   0.767   0.837
 6832SI     SI1 6832   0.316   0.621   1.250
 6833SI     SI1 6833   0.063   0.475   1.353
 6834SI     SI1 6834   0.063   0.475   1.663
 6835SI     SI1 6835   0.063   0.767   1.767
 6836SI     SI1 6836   0.316   0.621   2.180
 6837SI     SI1 6837   0.063   0.767   2.077
 6838SI     SI1 6838   0.316   0.621   2.490
 6839SI     SI1 6839   0.063   0.475   2.593
 6840SI     SI1 6840   0.063   0.475   2.903
 6841SI     SI1 6841   0.063   0.767   3.007
 6842SI     SI1 6842   0.316   0.621   3.420
 6843SI     SI1 6843   0.063   0.767   3.317
 6844SI     SI1 6844   0.316   0.621   3.730
 6845SI     SI1 6845   0.063   0.475   3.833
 6846SI     SI1 6846   0.063   0.475   4.143
 6847SI     SI1 6847   0.063   0.767   4.247
 6848SI     SI1 6848   0.316   0.621   4.660
 6849SI     SI1 6849   0.063   0.767   4.557
 6850SI     SI1 6850   0.316   0.621   4.970
 6851SI     SI1 6851   0.063   0.475   5.073
 6852SI     SI1 6852   0.063   0.475   5.383
 6853SI     SI1 6853   0.063   0.767   5.487
 6854SI     SI1 6854   0.316   0.621   5.900
 6855SI     SI1 6855   0.063   0.767   5.797
 6856SI     SI1 6856   0.316   0.913   0.113
 6857SI     SI1 6857   0.063   1.060   0.010
 6858SI     SI1 6858   0.316   0.913   0.423
 6859SI     SI1 6859   0.063   1.060   0.940
 6860SI     SI1 6860   0.316   0.913   1.353
 6861SI     SI1 6861   0.063   1.060   1.250
 6862SI     SI1 6862   0.316   0.913   1.663
 6863SI     SI1 6863   0.063   1.060   2.180
 6864SI     SI1 6864   0.316   0.913   2.593
 6865SI     SI1 6865   0.063   1.060   2.490
 6866SI     SI1 6866   0.316   0.913   2.903
 6867SI     SI1 6867   0.063   1.060   3.420
 6868SI     SI1 6868   0.316   0.913   3.833
 6869SI     SI1 6869   0.063   1.060   3.730
 6870SI     SI1 6870   0.316   0.913   4.143
 6871SI     SI1 6871   0.063   1.060   4.660
 6872SI     SI1 6872   0.316   0.913   5.073
 6873SI     SI1 6873   0.063   1.060   4.970
 6874SI     SI1 6874   0.316   0.913   5.383
 6875SI     SI1 6875   0.063   1.060   5.900
 6876SI     SI1 6876   0.316   1.498   0.010
 6877SI     SI1 6877   0.063   1.352   0.113
 6878SI     SI1 6878   0.316   1.206   0.527
 6879SI     SI1 6879   0.063   1.352   0.423
 6880SI     SI1 6880   0.316   1.498   0.940
 6881SI     SI1 6881   0.316   1.206   0.837
 6882SI     SI1 6882   0.316   1.498   1.250
 6883SI     SI1 6883   0.063   1.352   1.353
 6884SI     SI1 6884   0.316   1.206   1.767
 6885SI     SI1 6885   0.063   1.352   1.663
 6886SI     SI1 6886   0.316   1.498   2.180
 6887SI     SI1 6887   0.316   1.206   2.077
 6888SI     SI1 6888   0.316   1.498   2.490
 6889SI     SI1 6889   0.063   1.352   2.593
 6890SI     SI1 6890   0.316   1.206   3.007
 6891SI     SI1 6891   0.063   1.352   2.903
 6892SI     SI1 6892   0.316   1.498   3.420
 6893SI     SI1 6893   0.316   1.206   3.317
 6894SI     SI1 6894   0.316   1.498   3.730
 6895SI     SI1 6895   0.063   1.352   3.833
 6896SI     SI1 6896   0.316   1.206   4.247
 6897SI     SI1 6897   0.063   1.352   4.143
 6898SI     SI1 6898   0.316   1.498   4.660
 6899SI     SI1 6899   0.316   1.206   4.557
 6900SI     SI1 6900   0.316   1.498   4.970
 6901SI     SI1 6901   0.063   1.352   5.073
 6902SI     SI1 6902   0.316   1.206   5.487
 6903SI     SI1 6903   0.063   1.352   5.383
 6904SI     SI1 6904   0.316   1.498   5.900
 6905SI     SI1 6905   0.316   1.206   5.797
 6906SI     SI1 6906   0.316   1.791   0.113
 6907SI     SI1 6907   0.063   1.937   0.010
 6908SI     SI1 6908   0.063   1.644   0.527
 6909SI     SI1 6909   0.316   1.791   0.423
 6910SI     SI1 6910   0.063   1.644   0.837
 6911SI     SI1 6911   0.063   1.937   0.940
 6912SI     SI1 6912   0.316   1.791   1.353
 6913SI     SI1 6913   0.063   1.937   1.250
 6914SI     SI1 6914   0.063   1.644   1.767
 6915SI     SI1 6915   0.316   1.791   1.663
 6916SI     SI1 6916   0.063   1.644   2.077
 6917SI     SI1 6917   0.063   1.937   2.180
 6918SI     SI1 6918   0.316   1.791   2.593
 6919SI     SI1 6919   0.063   1.937   2.490
 6920SI     SI1 6920   0.063   1.644   3.007
 6921SI     SI1 6921   0.316   1.791   2.903
 6922SI     SI1 6922   0.063   1.644   3.317
 6923SI     SI1 6923   0.063   1.937   3.420
 6924SI     SI1 6924   0.316   1.791   3.833
 6925SI     SI1 6925   0.063   1.937   3.730
 6926SI     SI1 6926   0.063   1.644   4.247
 6927SI     SI1 6927   0.316   1.791   4.143
 6928SI     SI1 6928   0.063   1.644   4.557
 6929SI     SI1 6929   0.063   1.937   4.660
 6930SI     SI1 6930   0.316   1.791   5.073
 6931SI     SI1 6931   0.063   1.937   4.970
 6932SI     SI1 6932   0.063   1.644   5.487
 6933SI     SI1 6933   0.316   1.791   5.383
 6934SI     SI1 6934   0.063   1.644   5.797
 6935SI     SI1 6935   0.063   1.937   5.900
 6936SI     SI1 6936   0.316   2.375   0.010
 6937SI     SI1 6937   0.063   2.229   0.113
 6938SI     SI1 6938   0.316   2.083   0.527
 6939SI     SI1 6939   0.063   2.229   0.423
 6940SI     SI1 6940   0.316   2.375   0.940
 6941SI     SI1 6941   0.316   2.083   0.837
 6942SI     SI1 6942   0.316   2.375   1.250
 6943SI     SI1 6943   0.063   2.229   1.353
 6944SI     SI1 6944   0.316   2.083   1.767
 6945SI     SI1 6945   0.063   2.229   1.663
 6946SI     SI1 6946   0.316   2.375   2.180
 6947SI     SI1 6947   0.316   2.083   2.077
 6948SI     SI1 6948   0.316   2.375   2.490
 6949SI     SI1 6949   0.063   2.229   2.593
 6950SI     SI1 6950   0.316   2.083   3.007
 6951SI     SI1 6951   0.063   2.229   2.903
 6952SI     SI1 6952   0.316   2.375   3.420
 6953SI     SI1 6953   0.316   2.083   3.317
 6954SI     SI1 6954   0.316   2.375   3.730
 6955SI     SI1 6955   0.063   2.229   3.833
 6956SI     SI1 6956   0.316   2.083   4.247
 6957SI     SI1 6957   0.063   2.229   4.143
 6958SI     SI1 6958   0.316   2.375   4.660
 6959SI     SI1 6959   0.316   2.083   4.557
 6960SI     SI1 6960   0.316   2.375   4.970
 6961SI     SI1 6961   0.063   2.229   5.073
 6962SI     SI1 6962   0.316   2.083   5.487
 6963SI     SI1 6963   0.063   2.229   5.383
 6964SI     SI1 6964   0.316   2.375   5.900
 6965SI     SI1 6965   0.316   2.083   5.797
 6966SI     SI1 6966   0.316   2.668   0.113
 6967SI     SI1 6967   0.063   2.521   0.527
 6968SI     SI1 6968   0.316   2.668   0.423
 6969SI     SI1 6969   0.063   2.521   0.837
 6970SI     SI1 6970   0.316   2.668   1.353
 6971SI     SI1 6971   0.063   2.521   1.767
 6972SI     SI1 6972   0.316   2.668   1.663
 6973SI     SI1 6973   0.063   2.521   2.077
 6974SI     SI1 6974   0.316   2.668   2.593
 6975SI     SI1 6975   0.063   2.521   3.007
 6976SI     SI1 6976   0.316   2.668   2.903
 6977SI     SI1 6977   0.063   2.521   3.317
 6978SI     SI1 6978   0.316   2.668   3.833
 6979SI     SI1 6979   0.063   2.521   4.247
 6980SI     SI1 6980   0.316   2.668   4.143
 6981SI     SI1 6981   0.063   2.521   4.557
 6982SI     SI1 6982   0.316   2.668   5.073
 6983SI     SI1 6983   0.063   2.521   5.487
 6984SI     SI1 6984   0.316   2.668   5.383
 6985SI     SI1 6985   0.063   2.521   5.797
 6986SI     SI1 6986   0.063   2.814   0.010
 6987SI     SI1 6987   0.063   3.106   0.113
 6988SI     SI1 6988   0.316   2.960   0.527
 6989SI     SI1 6989   0.063   3.106   0.423
 6990SI     SI1 6990   0.316   2.960   0.837
 6991SI     SI1 6991   0.063   2.814   0.940
 6992SI     SI1 6992   0.063   2.814   1.250
 6993SI     SI1 6993   0.063   3.106   1.353
 6994SI     SI1 6994   0.316   2.960   1.767
 6995SI     SI1 6995   0.063   3.106   1.663
 6996SI     SI1 6996   0.316   2.960   2.077
 6997SI     SI1 6997   0.063   2.814   2.180
 6998SI     SI1 6998   0.063   2.814   2.490
 6999SI     SI1 6999   0.063   3.106   2.593
 7000SI     SI1 7000   0.316   2.960   3.007
 7001SI     SI1 7001   0.063   3.106   2.903
 7002SI     SI1 7002   0.316   2.960   3.317
 7003SI     SI1 7003   0.063   2.814   3.420
 7004SI     SI1 7004   0.063   2.814   3.730
 7005SI     SI1 7005   0.063   3.106   3.833
 7006SI     SI1 7006   0.316   2.960   4.247
 7007SI     SI1 7007   0.063   3.106   4.143
 7008SI     SI1 7008   0.316   2.960   4.557
 7009SI     SI1 7009   0.063   2.814   4.660
 7010SI     SI1 7010   0.063   2.814   4.970
 7011SI     SI1 7011   0.063   3.106   5.073
 7012SI     SI1 7012   0.316   2.960   5.487
 7013SI     SI1 7013   0.063   3.106   5.383
 7014SI     SI1 7014   0.316   2.960   5.797
 7015SI     SI1 7015   0.063   2.814   5.900
 7016SI     SI1 7016   0.316   3.252   0.010
 7017SI     SI1 7017   0.316   3.545   0.113
 7018SI     SI1 7018   0.063   3.398   0.527
 7019SI     SI1 7019   0.316   3.545   0.423
 7020SI     SI1 7020   0.316   3.252   0.940
 7021SI     SI1 7021   0.063   3.398   0.837
 7022SI     SI1 7022   0.316   3.252   1.250
 7023SI     SI1 7023   0.316   3.545   1.353
 7024SI     SI1 7024   0.063   3.398   1.767
 7025SI     SI1 7025   0.316   3.545   1.663
 7026SI     SI1 7026   0.316   3.252   2.180
 7027SI     SI1 7027   0.063   3.398   2.077
 7028SI     SI1 7028   0.316   3.252   2.490
 7029SI     SI1 7029   0.316   3.545   2.593
 7030SI     SI1 7030   0.063   3.398   3.007
 7031SI     SI1 7031   0.316   3.545   2.903
 7032SI     SI1 7032   0.316   3.252   3.420
 7033SI     SI1 7033   0.063   3.398   3.317
 7034SI     SI1 7034   0.316   3.252   3.730
 7035SI     SI1 7035   0.316   3.545   3.833
 7036SI     SI1 7036   0.063   3.398   4.247
 7037SI     SI1 7037   0.316   3.545   4.143
 7038SI     SI1 7038   0.316   3.252   4.660
 7039SI     SI1 7039   0.063   3.398   4.557
 7040SI     SI1 7040   0.316   3.252   4.970
 7041SI     SI1 7041   0.316   3.545   5.073
 7042SI     SI1 7042   0.063   3.398   5.487
 7043SI     SI1 7043   0.316   3.545   5.383
 7044SI     SI1 7044   0.316   3.252   5.900
 7045SI     SI1 7045   0.063   3.398   5.797
 7046SI     SI1 7046   0.063   3.691   0.010
 7047SI     SI1 7047   0.063   3.983   0.113
 7048SI     SI1 7048   0.316   3.837   0.527
 7049SI     SI1 7049   0.063   3.983   0.423
 7050SI     SI1 7050   0.316   3.837   0.837
 7051SI     SI1 7051   0.063   3.691   0.940
 7052SI     SI1 7052   0.063   3.691   1.250
 7053SI     SI1 7053   0.063   3.983   1.353
 7054SI     SI1 7054   0.316   3.837   1.767
 7055SI     SI1 7055   0.063   3.983   1.663
 7056SI     SI1 7056   0.316   3.837   2.077
 7057SI     SI1 7057   0.063   3.691   2.180
 7058SI     SI1 7058   0.063   3.691   2.490
 7059SI     SI1 7059   0.063   3.983   2.593
 7060SI     SI1 7060   0.316   3.837   3.007
 7061SI     SI1 7061   0.063   3.983   2.903
 7062SI     SI1 7062   0.316   3.837   3.317
 7063SI     SI1 7063   0.063   3.691   3.420
 7064SI     SI1 7064   0.063   3.691   3.730
 7065SI     SI1 7065   0.063   3.983   3.833
 7066SI     SI1 7066   0.316   3.837   4.247
 7067SI     SI1 7067   0.063   3.983   4.143
 7068SI     SI1 7068   0.316   3.837   4.557
 7069SI     SI1 7069   0.063   3.691   4.660
 7070SI     SI1 7070   0.063   3.691   4.970
 7071SI     SI1 7071   0.063   3.983   5.073
 7072SI     SI1 7072   0.316   3.837   5.487
 7073SI     SI1 7073   0.063   3.983   5.383
 7074SI     SI1 7074   0.316   3.837   5.797
 7075SI     SI1 7075   0.063   3.691   5.900
 7076SI     SI1 7076   0.316   4.129   0.010
 7077SI     SI1 7077   0.063   4.275   0.527
 7078SI     SI1 7078   0.316   4.129   0.940
 7079SI     SI1 7079   0.063   4.275   0.837
 7080SI     SI1 7080   0.316   4.129   1.250
 7081SI     SI1 7081   0.063   4.275   1.767
 7082SI     SI1 7082   0.316   4.129   2.180
 7083SI     SI1 7083   0.063   4.275   2.077
 7084SI     SI1 7084   0.316   4.129   2.490
 7085SI     SI1 7085   0.063   4.275   3.007
 7086SI     SI1 7086   0.316   4.129   3.420
 7087SI     SI1 7087   0.063   4.275   3.317
 7088SI     SI1 7088   0.316   4.129   3.730
 7089SI     SI1 7089   0.063   4.275   4.247
 7090SI     SI1 7090   0.316   4.129   4.660
 7091SI     SI1 7091   0.063   4.275   4.557
 7092SI     SI1 7092   0.316   4.129   4.970
 7093SI     SI1 7093   0.063   4.275   5.487
 7094SI     SI1 7094   0.316   4.129   5.900
 7095SI     SI1 7095   0.063   4.275   5.797
 7096SI     SI1 7096   0.316   4.422   0.113
 7097SI     SI1 7097   0.063   4.568   0.010
 7098SI     SI1 7098   0.316   4.422   0.423
 7099SI     SI1 7099   0.316   4.714   0.527
 7100SI     SI1 7100   0.316   4.714   0.837
 7101SI     SI1 7101   0.063   4.568   0.940
 7102SI     SI1 7102   0.316   4.422   1.353
 7103SI     SI1 7103   0.063   4.568   1.250
 7104SI     SI1 7104   0.316   4.422   1.663
 7105SI     SI1 7105   0.316   4.714   1.767
 7106SI     SI1 7106   0.316   4.714   2.077
 7107SI     SI1 7107   0.063   4.568   2.180
 7108SI     SI1 7108   0.316   4.422   2.593
 7109SI     SI1 7109   0.063   4.568   2.490
 7110SI     SI1 7110   0.316   4.422   2.903
 7111SI     SI1 7111   0.316   4.714   3.007
 7112SI     SI1 7112   0.316   4.714   3.317
 7113SI     SI1 7113   0.063   4.568   3.420
 7114SI     SI1 7114   0.316   4.422   3.833
 7115SI     SI1 7115   0.063   4.568   3.730
 7116SI     SI1 7116   0.316   4.422   4.143
 7117SI     SI1 7117   0.316   4.714   4.247
 7118SI     SI1 7118   0.316   4.714   4.557
 7119SI     SI1 7119   0.063   4.568   4.660
 7120SI     SI1 7120   0.316   4.422   5.073
 7121SI     SI1 7121   0.063   4.568   4.970
 7122SI     SI1 7122   0.316   4.422   5.383
 7123SI     SI1 7123   0.316   4.714   5.487
 7124SI     SI1 7124   0.316   4.714   5.797
 7125SI     SI1 7125   0.063   4.568   5.900
 7126SI     SI1 7126   0.316   5.006   0.010
 7127SI     SI1 7127   0.063   4.860   0.113
 7128SI     SI1 7128   0.063   4.860   0.423
 7129SI     SI1 7129   0.063   5.152   0.527
 7130SI     SI1 7130   0.316   5.006   0.940
 7131SI     SI1 7131   0.063   5.152   0.837
 7132SI     SI1 7132   0.316   5.006   1.250
 7133SI     SI1 7133   0.063   4.860   1.353
 7134SI     SI1 7134   0.063   4.860   1.663
 7135SI     SI1 7135   0.063   5.152   1.767
 7136SI     SI1 7136   0.316   5.006   2.180
 7137SI     SI1 7137   0.063   5.152   2.077
 7138SI     SI1 7138   0.316   5.006   2.490
 7139SI     SI1 7139   0.063   4.860   2.593
 7140SI     SI1 7140   0.063   4.860   2.903
 7141SI     SI1 7141   0.063   5.152   3.007
 7142SI     SI1 7142   0.316   5.006   3.420
 7143SI     SI1 7143   0.063   5.152   3.317
 7144SI     SI1 7144   0.316   5.006   3.730
 7145SI     SI1 7145   0.063   4.860   3.833
 7146SI     SI1 7146   0.063   4.860   4.143
 7147SI     SI1 7147   0.063   5.152   4.247
 7148SI     SI1 7148   0.316   5.006   4.660
 7149SI     SI1 7149   0.063   5.152   4.557
 7150SI     SI1 7150   0.316   5.006   4.970
 7151SI     SI1 7151   0.063   4.860   5.073
 7152SI     SI1 7152   0.063   4.860   5.383
 7153SI     SI1 7153   0.063   5.152   5.487
 7154SI     SI1 7154   0.316   5.006   5.900
 7155SI     SI1 7155   0.063   5.152   5.797
 7156SI     SI1 7156   0.316   5.299   0.113
 7157SI     SI1 7157   0.063   5.445   0.010
 7158SI     SI1 7158   0.316   5.299   0.423
 7159SI     SI1 7159   0.316   5.591   0.527
 7160SI     SI1 7160   0.316   5.591   0.837
 7161SI     SI1 7161   0.063   5.445   0.940
 7162SI     SI1 7162   0.316   5.299   1.353
 7163SI     SI1 7163   0.063   5.445   1.250
 7164SI     SI1 7164   0.316   5.299   1.663
 7165SI     SI1 7165   0.316   5.591   1.767
 7166SI     SI1 7166   0.316   5.591   2.077
 7167SI     SI1 7167   0.063   5.445   2.180
 7168SI     SI1 7168   0.316   5.299   2.593
 7169SI     SI1 7169   0.063   5.445   2.490
 7170SI     SI1 7170   0.316   5.299   2.903
 7171SI     SI1 7171   0.316   5.591   3.007
 7172SI     SI1 7172   0.316   5.591   3.317
 7173SI     SI1 7173   0.063   5.445   3.420
 7174SI     SI1 7174   0.316   5.299   3.833
 7175SI     SI1 7175   0.063   5.445   3.730
 7176SI     SI1 7176   0.316   5.299   4.143
 7177SI     SI1 7177   0.316   5.591   4.247
 7178SI     SI1 7178   0.316   5.591   4.557
 7179SI     SI1 7179   0.063   5.445   4.660
 7180SI     SI1 7180   0.316   5.299   5.073
 7181SI     SI1 7181   0.063   5.445   4.970
 7182SI     SI1 7182   0.316   5.299   5.383
 7183SI     SI1 7183   0.316   5.591   5.487
 7184SI     SI1 7184   0.316   5.591   5.797
 7185SI     SI1 7185   0.063   5.445   5.900
 7186SI     SI1 7186   0.316   5.883   0.010
 7187SI     SI1 7187   0.063   5.737   0.113
 7188SI     SI1 7188   0.063   5.737   0.423
 7189SI     SI1 7189   0.063   6.029   0.527
 7190SI     SI1 7190   0.316   5.883   0.940
 7191SI     SI1 7191   0.063   6.029   0.837
 7192SI     SI1 7192   0.316   5.883   1.250
 7193SI     SI1 7193   0.063   5.737   1.353
 7194SI     SI1 7194   0.063   5.737   1.663
 7195SI     SI1 7195   0.063   6.029   1.767
 7196SI     SI1 7196   0.316   5.883   2.180
 7197SI     SI1 7197   0.063   6.029   2.077
 7198SI     SI1 7198   0.316   5.883   2.490
 7199SI     SI1 7199   0.063   5.737   2.593
 7200SI     SI1 7200   0.063   5.737   2.903
 7201SI     SI1 7201   0.063   6.029   3.007
 7202SI     SI1 7202   0.316   5.883   3.420
 7203SI     SI1 7203   0.063   6.029   3.317
 7204SI     SI1 7204   0.316   5.883   3.730
 7205SI     SI1 7205   0.063   5.737   3.833
 7206SI     SI1 7206   0.063   5.737   4.143
 7207SI     SI1 7207   0.063   6.029   4.247
 7208SI     SI1 7208   0.316   5.883   4.660
 7209SI     SI1 7209   0.063   6.029   4.557
 7210SI     SI1 7210   0.316   5.883   4.970
 7211SI     SI1 7211   0.063   5.737   5.073
 7212SI     SI1 7212   0.063   5.737   5.383
 7213SI     SI1 7213   0.063   6.029   5.487
 7214SI     SI1 7214   0.316   5.883   5.900
 7215SI     SI1 7215   0.063   6.029   5.797
 7216SI     SI1 7216   0.569   0.183   0.010
 7217SI     SI1 7217   0.569   0.183   0.940
 7218SI     SI1 7218   0.569   0.183   1.250
 7219SI     SI1 7219   0.569   0.183   2.180
 7220SI     SI1 7220   0.569   0.183   2.490
 7221SI     SI1 7221   0.569   0.183   3.420
 7222SI     SI1 7222   0.569   0.183   3.730
 7223SI     SI1 7223   0.569   0.183   4.660
 7224SI     SI1 7224   0.569   0.183   4.970
 7225SI     SI1 7225   0.569   0.183   5.900
 7226SI     SI1 7226   0.569   0.475   0.113
 7227SI     SI1 7227   0.569   0.475   0.423
 7228SI     SI1 7228   0.569   0.767   0.527
 7229SI     SI1 7229   0.569   0.767   0.837
 7230SI     SI1 7230   0.569   0.475   1.353
 7231SI     SI1 7231   0.569   0.475   1.663
 7232SI     SI1 7232   0.569   0.767   1.767
 7233SI     SI1 7233   0.569   0.767   2.077
 7234SI     SI1 7234   0.569   0.475   2.593
 7235SI     SI1 7235   0.569   0.475   2.903
 7236SI     SI1 7236   0.569   0.767   3.007
 7237SI     SI1 7237   0.569   0.767   3.317
 7238SI     SI1 7238   0.569   0.475   3.833
 7239SI     SI1 7239   0.569   0.475   4.143
 7240SI     SI1 7240   0.569   0.767   4.247
 7241SI     SI1 7241   0.569   0.767   4.557
 7242SI     SI1 7242   0.569   0.475   5.073
 7243SI     SI1 7243   0.569   0.475   5.383
 7244SI     SI1 7244   0.569   0.767   5.487
 7245SI     SI1 7245   0.569   0.767   5.797
 7246SI     SI1 7246   0.569   1.060   0.010
 7247SI     SI1 7247   0.569   1.060   0.940
 7248SI     SI1 7248   0.569   1.060   1.250
 7249SI     SI1 7249   0.569   1.060   2.180
 7250SI     SI1 7250   0.569   1.060   2.490
 7251SI     SI1 7251   0.569   1.060   3.420
 7252SI     SI1 7252   0.569   1.060   3.730
 7253SI     SI1 7253   0.569   1.060   4.660
 7254SI     SI1 7254   0.569   1.060   4.970
 7255SI     SI1 7255   0.569   1.060   5.900
 7256SI     SI1 7256   0.569   1.352   0.113
 7257SI     SI1 7257   0.569   1.352   0.423
 7258SI     SI1 7258   0.569   1.352   1.353
 7259SI     SI1 7259   0.569   1.352   1.663
 7260SI     SI1 7260   0.569   1.352   2.593
 7261SI     SI1 7261   0.569   1.352   2.903
 7262SI     SI1 7262   0.569   1.352   3.833
 7263SI     SI1 7263   0.569   1.352   4.143
 7264SI     SI1 7264   0.569   1.352   5.073
 7265SI     SI1 7265   0.569   1.352   5.383
 7266SI     SI1 7266   0.569   1.937   0.010
 7267SI     SI1 7267   0.569   1.644   0.527
 7268SI     SI1 7268   0.569   1.644   0.837
 7269SI     SI1 7269   0.569   1.937   0.940
 7270SI     SI1 7270   0.569   1.937   1.250
 7271SI     SI1 7271   0.569   1.644   1.767
 7272SI     SI1 7272   0.569   1.644   2.077
 7273SI     SI1 7273   0.569   1.937   2.180
 7274SI     SI1 7274   0.569   1.937   2.490
 7275SI     SI1 7275   0.569   1.644   3.007
 7276SI     SI1 7276   0.569   1.644   3.317
 7277SI     SI1 7277   0.569   1.937   3.420
 7278SI     SI1 7278   0.569   1.937   3.730
 7279SI     SI1 7279   0.569   1.644   4.247
 7280SI     SI1 7280   0.569   1.644   4.557
 7281SI     SI1 7281   0.569   1.937   4.660
 7282SI     SI1 7282   0.569   1.937   4.970
 7283SI     SI1 7283   0.569   1.644   5.487
 7284SI     SI1 7284   0.569   1.644   5.797
 7285SI     SI1 7285   0.569   1.937   5.900
 7286SI     SI1 7286   0.569   2.229   0.113
 7287SI     SI1 7287   0.569   2.229   0.423
 7288SI     SI1 7288   0.569   2.229   1.353
 7289SI     SI1 7289   0.569   2.229   1.663
 7290SI     SI1 7290   0.569   2.229   2.593
 7291SI     SI1 7291   0.569   2.229   2.903
 7292SI     SI1 7292   0.569   2.229   3.833
 7293SI     SI1 7293   0.569   2.229   4.143
 7294SI     SI1 7294   0.569   2.229   5.073
 7295SI     SI1 7295   0.569   2.229   5.383
 7296SI     SI1 7296   0.569   2.521   0.527
 7297SI     SI1 7297   0.569   2.521   0.837
 7298SI     SI1 7298   0.569   2.521   1.767
 7299SI     SI1 7299   0.569   2.521   2.077
 7300SI     SI1 7300   0.569   2.521   3.007
 7301SI     SI1 7301   0.569   2.521   3.317
 7302SI     SI1 7302   0.569   2.521   4.247
 7303SI     SI1 7303   0.569   2.521   4.557
 7304SI     SI1 7304   0.569   2.521   5.487
 7305SI     SI1 7305   0.569   2.521   5.797
 7306SI     SI1 7306   0.569   2.814   0.010
 7307SI     SI1 7307   0.569   3.106   0.113
 7308SI     SI1 7308   0.569   3.106   0.423
 7309SI     SI1 7309   0.569   2.814   0.940
 7310SI     SI1 7310   0.569   2.814   1.250
 7311SI     SI1 7311   0.569   3.106   1.353
 7312SI     SI1 7312   0.569   3.106   1.663
 7313SI     SI1 7313   0.569   2.814   2.180
 7314SI     SI1 7314   0.569   2.814   2.490
 7315SI     SI1 7315   0.569   3.106   2.593
 7316SI     SI1 7316   0.569   3.106   2.903
 7317SI     SI1 7317   0.569   2.814   3.420
 7318SI     SI1 7318   0.569   2.814   3.730
 7319SI     SI1 7319   0.569   3.106   3.833
 7320SI     SI1 7320   0.569   3.106   4.143
 7321SI     SI1 7321   0.569   2.814   4.660
 7322SI     SI1 7322   0.569   2.814   4.970
 7323SI     SI1 7323   0.569   3.106   5.073
 7324SI     SI1 7324   0.569   3.106   5.383
 7325SI     SI1 7325   0.569   2.814   5.900
 7326SI     SI1 7326   0.569   3.398   0.527
 7327SI     SI1 7327   0.569   3.398   0.837
 7328SI     SI1 7328   0.569   3.398   1.767
 7329SI     SI1 7329   0.569   3.398   2.077
 7330SI     SI1 7330   0.569   3.398   3.007
 7331SI     SI1 7331   0.569   3.398   3.317
 7332SI     SI1 7332   0.569   3.398   4.247
 7333SI     SI1 7333   0.569   3.398   4.557
 7334SI     SI1 7334   0.569   3.398   5.487
 7335SI     SI1 7335   0.569   3.398   5.797
 7336SI     SI1 7336   0.569   3.691   0.010
 7337SI     SI1 7337   0.569   3.983   0.113
 7338SI     SI1 7338   0.569   3.983   0.423
 7339SI     SI1 7339   0.569   3.691   0.940
 7340SI     SI1 7340   0.569   3.691   1.250
 7341SI     SI1 7341   0.569   3.983   1.353
 7342SI     SI1 7342   0.569   3.983   1.663
 7343SI     SI1 7343   0.569   3.691   2.180
 7344SI     SI1 7344   0.569   3.691   2.490
 7345SI     SI1 7345   0.569   3.983   2.593
 7346SI     SI1 7346   0.569   3.983   2.903
 7347SI     SI1 7347   0.569   3.691   3.420
 7348SI     SI1 7348   0.569   3.691   3.730
 7349SI     SI1 7349   0.569   3.983   3.833
 7350SI     SI1 7350   0.569   3.983   4.143
 7351SI     SI1 7351   0.569   3.691   4.660
 7352SI     SI1 7352   0.569   3.691   4.970
 7353SI     SI1 7353   0.569   3.983   5.073
 7354SI     SI1 7354   0.569   3.983   5.383
 7355SI     SI1 7355   0.569   3.691   5.900
 7356SI     SI1 7356   0.569   4.275   0.527
 7357SI     SI1 7357   0.569   4.275   0.837
 7358SI     SI1 7358   0.569   4.275   1.767
 7359SI     SI1 7359   0.569   4.275   2.077
 7360SI     SI1 7360   0.569   4.275   3.007
 7361SI     SI1 7361   0.569   4.275   3.317
 7362SI     SI1 7362   0.569   4.275   4.247
 7363SI     SI1 7363   0.569   4.275   4.557
 7364SI     SI1 7364   0.569   4.275   5.487
 7365SI     SI1 7365   0.569   4.275   5.797
 7366SI     SI1 7366   0.569   4.568   0.010
 7367SI     SI1 7367   0.569   4.568   0.940
 7368SI     SI1 7368   0.569   4.568   1.250
 7369SI     SI1 7369   0.569   4.568   2.180
 7370SI     SI1 7370   0.569   4.568   2.490
 7371SI     SI1 7371   0.569   4.568   3.420
 7372SI     SI1 7372   0.569   4.568   3.730
 7373SI     SI1 7373   0.569   4.568   4.660
 7374SI     SI1 7374   0.569   4.568   4.970
 7375SI     SI1 7375   0.569   4.568   5.900
 7376SI     SI1 7376   0.569   4.860   0.113
 7377SI     SI1 7377   0.569   4.860   0.423
 7378SI     SI1 7378   0.569   5.152   0.527
 7379SI     SI1 7379   0.569   5.152   0.837
 7380SI     SI1 7380   0.569   4.860   1.353
 7381SI     SI1 7381   0.569   4.860   1.663
 7382SI     SI1 7382   0.569   5.152   1.767
 7383SI     SI1 7383   0.569   5.152   2.077
 7384SI     SI1 7384   0.569   4.860   2.593
 7385SI     SI1 7385   0.569   4.860   2.903
 7386SI     SI1 7386   0.569   5.152   3.007
 7387SI     SI1 7387   0.569   5.152   3.317
 7388SI     SI1 7388   0.569   4.860   3.833
 7389SI     SI1 7389   0.569   4.860   4.143
 7390SI     SI1 7390   0.569   5.152   4.247
 7391SI     SI1 7391   0.569   5.152   4.557
 7392SI     SI1 7392   0.569   4.860   5.073
 7393SI     SI1 7393   0.569   4.860   5.383
 7394SI     SI1 7394   0.569   5.152   5.487
 7395SI     SI1 7395   0.569   5.152   5.797
 7396SI     SI1 7396   0.569   5.445   0.010
 7397SI     SI1 7397   0.569   5.445   0.940
 7398SI     SI1 7398   0.569   5.445   1.250
 7399SI     SI1 7399   0.569   5.445   2.180
 7400SI     SI1 7400   0.569   5.445   2.490
 7401SI     SI1 7401   0.569   5.445   3.420
 7402SI     SI1 7402   0.569   5.445   3.730
 7403SI     SI1 7403   0.569   5.445   4.660
 7404SI     SI1 7404   0.569   5.445   4.970
 7405SI     SI1 7405   0.569   5.445   5.900
 7406SI     SI1 7406   0.569   5.737   0.113
 7407SI     SI1 7407   0.569   5.737   0.423
 7408SI     SI1 7408   0.569   6.029   0.527
 7409SI     SI1 7409   0.569   6.029   0.837
 7410SI     SI1 7410   0.569   5.737   1.353
 7411SI     SI1 7411   0.569   5.737   1.663
 7412SI     SI1 7412   0.569   6.029   1.767
 7413SI     SI1 7413   0.569   6.029   2.077
 7414SI     SI1 7414   0.569   5.737   2.593
 7415SI     SI1 7415   0.569   5.737   2.903
 7416SI     SI1 7416   0.569   6.029   3.007
 7417SI     SI1 7417   0.569   6.029   3.317
 7418SI     SI1 7418   0.569   5.737   3.833
 7419SI     SI1 7419   0.569   5.737   4.143
 7420SI     SI1 7420   0.569   6.029   4.247
 7421SI     SI1 7421   0.569   6.029   4.557
 7422SI     SI1 7422   0.569   5.737   5.073
 7423SI     SI1 7423   0.569   5.737   5.383
 7424SI     SI1 7424   0.569   6.029   5.487
 7425SI     SI1 7425   0.569   6.029   5.797
 7426SI     SI1 7426   0.822   0.036   0.113
 7427SI     SI1 7427   1.075   0.183   0.010
 7428SI     SI1 7428   0.822   0.036   0.423
 7429SI     SI1 7429   0.822   0.329   0.527
 7430SI     SI1 7430   0.822   0.329   0.837
 7431SI     SI1 7431   1.075   0.183   0.940
 7432SI     SI1 7432   0.822   0.036   1.353
 7433SI     SI1 7433   1.075   0.183   1.250
 7434SI     SI1 7434   0.822   0.036   1.663
 7435SI     SI1 7435   0.822   0.329   1.767
 7436SI     SI1 7436   0.822   0.329   2.077
 7437SI     SI1 7437   1.075   0.183   2.180
 7438SI     SI1 7438   0.822   0.036   2.593
 7439SI     SI1 7439   1.075   0.183   2.490
 7440SI     SI1 7440   0.822   0.036   2.903
 7441SI     SI1 7441   0.822   0.329   3.007
 7442SI     SI1 7442   0.822   0.329   3.317
 7443SI     SI1 7443   1.075   0.183   3.420
 7444SI     SI1 7444   0.822   0.036   3.833
 7445SI     SI1 7445   1.075   0.183   3.730
 7446SI     SI1 7446   0.822   0.036   4.143
 7447SI     SI1 7447   0.822   0.329   4.247
 7448SI     SI1 7448   0.822   0.329   4.557
 7449SI     SI1 7449   1.075   0.183   4.660
 7450SI     SI1 7450   0.822   0.036   5.073
 7451SI     SI1 7451   1.075   0.183   4.970
 7452SI     SI1 7452   0.822   0.036   5.383
 7453SI     SI1 7453   0.822   0.329   5.487
 7454SI     SI1 7454   0.822   0.329   5.797
 7455SI     SI1 7455   1.075   0.183   5.900
 7456SI     SI1 7456   0.822   0.621   0.010
 7457SI     SI1 7457   1.075   0.475   0.113
 7458SI     SI1 7458   1.075   0.475   0.423
 7459SI     SI1 7459   1.075   0.767   0.527
 7460SI     SI1 7460   0.822   0.621   0.940
 7461SI     SI1 7461   1.075   0.767   0.837
 7462SI     SI1 7462   0.822   0.621   1.250
 7463SI     SI1 7463   1.075   0.475   1.353
 7464SI     SI1 7464   1.075   0.475   1.663
 7465SI     SI1 7465   1.075   0.767   1.767
 7466SI     SI1 7466   0.822   0.621   2.180
 7467SI     SI1 7467   1.075   0.767   2.077
 7468SI     SI1 7468   0.822   0.621   2.490
 7469SI     SI1 7469   1.075   0.475   2.593
 7470SI     SI1 7470   1.075   0.475   2.903
 7471SI     SI1 7471   1.075   0.767   3.007
 7472SI     SI1 7472   0.822   0.621   3.420
 7473SI     SI1 7473   1.075   0.767   3.317
 7474SI     SI1 7474   0.822   0.621   3.730
 7475SI     SI1 7475   1.075   0.475   3.833
 7476SI     SI1 7476   1.075   0.475   4.143
 7477SI     SI1 7477   1.075   0.767   4.247
 7478SI     SI1 7478   0.822   0.621   4.660
 7479SI     SI1 7479   1.075   0.767   4.557
 7480SI     SI1 7480   0.822   0.621   4.970
 7481SI     SI1 7481   1.075   0.475   5.073
 7482SI     SI1 7482   1.075   0.475   5.383
 7483SI     SI1 7483   1.075   0.767   5.487
 7484SI     SI1 7484   0.822   0.621   5.900
 7485SI     SI1 7485   1.075   0.767   5.797
 7486SI     SI1 7486   0.822   0.913   0.113
 7487SI     SI1 7487   1.075   1.060   0.010
 7488SI     SI1 7488   0.822   0.913   0.423
 7489SI     SI1 7489   1.075   1.060   0.940
 7490SI     SI1 7490   0.822   0.913   1.353
 7491SI     SI1 7491   1.075   1.060   1.250
 7492SI     SI1 7492   0.822   0.913   1.663
 7493SI     SI1 7493   1.075   1.060   2.180
 7494SI     SI1 7494   0.822   0.913   2.593
 7495SI     SI1 7495   1.075   1.060   2.490
 7496SI     SI1 7496   0.822   0.913   2.903
 7497SI     SI1 7497   1.075   1.060   3.420
 7498SI     SI1 7498   0.822   0.913   3.833
 7499SI     SI1 7499   1.075   1.060   3.730
 7500SI     SI1 7500   0.822   0.913   4.143
 7501SI     SI1 7501   1.075   1.060   4.660
 7502SI     SI1 7502   0.822   0.913   5.073
 7503SI     SI1 7503   1.075   1.060   4.970
 7504SI     SI1 7504   0.822   0.913   5.383
 7505SI     SI1 7505   1.075   1.060   5.900
 7506SI     SI1 7506   0.822   1.498   0.010
 7507SI     SI1 7507   1.075   1.352   0.113
 7508SI     SI1 7508   0.822   1.206   0.527
 7509SI     SI1 7509   1.075   1.352   0.423
 7510SI     SI1 7510   0.822   1.498   0.940
 7511SI     SI1 7511   0.822   1.206   0.837
 7512SI     SI1 7512   0.822   1.498   1.250
 7513SI     SI1 7513   1.075   1.352   1.353
 7514SI     SI1 7514   0.822   1.206   1.767
 7515SI     SI1 7515   1.075   1.352   1.663
 7516SI     SI1 7516   0.822   1.498   2.180
 7517SI     SI1 7517   0.822   1.206   2.077
 7518SI     SI1 7518   0.822   1.498   2.490
 7519SI     SI1 7519   1.075   1.352   2.593
 7520SI     SI1 7520   0.822   1.206   3.007
 7521SI     SI1 7521   1.075   1.352   2.903
 7522SI     SI1 7522   0.822   1.498   3.420
 7523SI     SI1 7523   0.822   1.206   3.317
 7524SI     SI1 7524   0.822   1.498   3.730
 7525SI     SI1 7525   1.075   1.352   3.833
 7526SI     SI1 7526   0.822   1.206   4.247
 7527SI     SI1 7527   1.075   1.352   4.143
 7528SI     SI1 7528   0.822   1.498   4.660
 7529SI     SI1 7529   0.822   1.206   4.557
 7530SI     SI1 7530   0.822   1.498   4.970
 7531SI     SI1 7531   1.075   1.352   5.073
 7532SI     SI1 7532   0.822   1.206   5.487
 7533SI     SI1 7533   1.075   1.352   5.383
 7534SI     SI1 7534   0.822   1.498   5.900
 7535SI     SI1 7535   0.822   1.206   5.797
 7536SI     SI1 7536   0.822   1.791   0.113
 7537SI     SI1 7537   1.075   1.937   0.010
 7538SI     SI1 7538   1.075   1.644   0.527
 7539SI     SI1 7539   0.822   1.791   0.423
 7540SI     SI1 7540   1.075   1.644   0.837
 7541SI     SI1 7541   1.075   1.937   0.940
 7542SI     SI1 7542   0.822   1.791   1.353
 7543SI     SI1 7543   1.075   1.937   1.250
 7544SI     SI1 7544   1.075   1.644   1.767
 7545SI     SI1 7545   0.822   1.791   1.663
 7546SI     SI1 7546   1.075   1.644   2.077
 7547SI     SI1 7547   1.075   1.937   2.180
 7548SI     SI1 7548   0.822   1.791   2.593
 7549SI     SI1 7549   1.075   1.937   2.490
 7550SI     SI1 7550   1.075   1.644   3.007
 7551SI     SI1 7551   0.822   1.791   2.903
 7552SI     SI1 7552   1.075   1.644   3.317
 7553SI     SI1 7553   1.075   1.937   3.420
 7554SI     SI1 7554   0.822   1.791   3.833
 7555SI     SI1 7555   1.075   1.937   3.730
 7556SI     SI1 7556   1.075   1.644   4.247
 7557SI     SI1 7557   0.822   1.791   4.143
 7558SI     SI1 7558   1.075   1.644   4.557
 7559SI     SI1 7559   1.075   1.937   4.660
 7560SI     SI1 7560   0.822   1.791   5.073
 7561SI     SI1 7561   1.075   1.937   4.970
 7562SI     SI1 7562   1.075   1.644   5.487
 7563SI     SI1 7563   0.822   1.791   5.383
 7564SI     SI1 7564   1.075   1.644   5.797
 7565SI     SI1 7565   1.075   1.937   5.900
 7566SI     SI1 7566   0.822   2.375   0.010
 7567SI     SI1 7567   0.822   2.083   0.527
 7568SI     SI1 7568   1.075   2.229   0.423
 7569SI     SI1 7569   0.822   2.375   0.940
 7570SI     SI1 7570   0.822   2.083   0.837
 7571SI     SI1 7571   0.822   2.375   1.250
 7572SI     SI1 7572   0.822   2.083   1.767
 7573SI     SI1 7573   1.075   2.229   1.663
 7574SI     SI1 7574   0.822   2.375   2.180
 7575SI     SI1 7575   0.822   2.083   2.077
 7576SI     SI1 7576   0.822   2.375   2.490
 7577SI     SI1 7577   0.822   2.083   3.007
 7578SI     SI1 7578   1.075   2.229   2.903
 7579SI     SI1 7579   0.822   2.375   3.420
 7580SI     SI1 7580   0.822   2.083   3.317
 7581SI     SI1 7581   0.822   2.375   3.730
 7582SI     SI1 7582   0.822   2.083   4.247
 7583SI     SI1 7583   1.075   2.229   4.143
 7584SI     SI1 7584   0.822   2.375   4.660
 7585SI     SI1 7585   0.822   2.083   4.557
 7586SI     SI1 7586   0.822   2.375   4.970
 7587SI     SI1 7587   0.822   2.083   5.487
 7588SI     SI1 7588   1.075   2.229   5.383
 7589SI     SI1 7589   0.822   2.375   5.900
 7590SI     SI1 7590   0.822   2.083   5.797
 7591SI     SI1 7591   0.822   2.668   0.113
 7592SI     SI1 7592   0.822   2.668   0.423
 7593SI     SI1 7593   0.822   2.668   1.353
 7594SI     SI1 7594   0.822   2.668   1.663
 7595SI     SI1 7595   0.822   2.668   2.593
 7596SI     SI1 7596   0.822   2.668   2.903
 7597SI     SI1 7597   0.822   2.668   3.833
 7598SI     SI1 7598   0.822   2.668   4.143
 7599SI     SI1 7599   0.822   2.668   5.073
 7600SI     SI1 7600   0.822   2.668   5.383
 7601SI     SI1 7601   0.822   2.960   0.527
 7602SI     SI1 7602   0.822   2.960   0.837
 7603SI     SI1 7603   0.822   2.960   1.767
 7604SI     SI1 7604   0.822   2.960   2.077
 7605SI     SI1 7605   0.822   2.960   3.007
 7606SI     SI1 7606   0.822   2.960   3.317
 7607SI     SI1 7607   0.822   2.960   4.247
 7608SI     SI1 7608   0.822   2.960   4.557
 7609SI     SI1 7609   0.822   2.960   5.487
 7610SI     SI1 7610   0.822   2.960   5.797
 7611SI     SI1 7611   0.822   3.252   0.010
 7612SI     SI1 7612   0.822   3.545   0.113
 7613SI     SI1 7613   0.822   3.545   0.423
 7614SI     SI1 7614   0.822   3.252   0.940
 7615SI     SI1 7615   0.822   3.252   1.250
 7616SI     SI1 7616   0.822   3.545   1.353
 7617SI     SI1 7617   0.822   3.545   1.663
 7618SI     SI1 7618   0.822   3.252   2.180
 7619SI     SI1 7619   0.822   3.252   2.490
 7620SI     SI1 7620   0.822   3.545   2.593
 7621SI     SI1 7621   0.822   3.545   2.903
 7622SI     SI1 7622   0.822   3.252   3.420
 7623SI     SI1 7623   0.822   3.252   3.730
 7624SI     SI1 7624   0.822   3.545   3.833
 7625SI     SI1 7625   0.822   3.545   4.143
 7626SI     SI1 7626   0.822   3.252   4.660
 7627SI     SI1 7627   0.822   3.252   4.970
 7628SI     SI1 7628   0.822   3.545   5.073
 7629SI     SI1 7629   0.822   3.545   5.383
 7630SI     SI1 7630   0.822   3.252   5.900
 7631SI     SI1 7631   1.075   3.983   0.113
 7632SI     SI1 7632   0.822   3.837   0.527
 7633SI     SI1 7633   0.822   3.837   0.837
 7634SI     SI1 7634   1.075   3.983   1.353
 7635SI     SI1 7635   0.822   3.837   1.767
 7636SI     SI1 7636   0.822   3.837   2.077
 7637SI     SI1 7637   1.075   3.983   2.593
 7638SI     SI1 7638   0.822   3.837   3.007
 7639SI     SI1 7639   0.822   3.837   3.317
 7640SI     SI1 7640   1.075   3.983   3.833
 7641SI     SI1 7641   0.822   3.837   4.247
 7642SI     SI1 7642   0.822   3.837   4.557
 7643SI     SI1 7643   1.075   3.983   5.073
 7644SI     SI1 7644   0.822   3.837   5.487
 7645SI     SI1 7645   0.822   3.837   5.797
 7646SI     SI1 7646   0.822   4.129   0.010
 7647SI     SI1 7647   1.075   4.275   0.527
 7648SI     SI1 7648   0.822   4.129   0.940
 7649SI     SI1 7649   1.075   4.275   0.837
 7650SI     SI1 7650   0.822   4.129   1.250
 7651SI     SI1 7651   1.075   4.275   1.767
 7652SI     SI1 7652   0.822   4.129   2.180
 7653SI     SI1 7653   1.075   4.275   2.077
 7654SI     SI1 7654   0.822   4.129   2.490
 7655SI     SI1 7655   1.075   4.275   3.007
 7656SI     SI1 7656   0.822   4.129   3.420
 7657SI     SI1 7657   1.075   4.275   3.317
 7658SI     SI1 7658   0.822   4.129   3.730
 7659SI     SI1 7659   1.075   4.275   4.247
 7660SI     SI1 7660   0.822   4.129   4.660
 7661SI     SI1 7661   1.075   4.275   4.557
 7662SI     SI1 7662   0.822   4.129   4.970
 7663SI     SI1 7663   1.075   4.275   5.487
 7664SI     SI1 7664   0.822   4.129   5.900
 7665SI     SI1 7665   1.075   4.275   5.797
 7666SI     SI1 7666   0.822   4.422   0.113
 7667SI     SI1 7667   1.075   4.568   0.010
 7668SI     SI1 7668   0.822   4.422   0.423
 7669SI     SI1 7669   0.822   4.714   0.527
 7670SI     SI1 7670   0.822   4.714   0.837
 7671SI     SI1 7671   1.075   4.568   0.940
 7672SI     SI1 7672   0.822   4.422   1.353
 7673SI     SI1 7673   1.075   4.568   1.250
 7674SI     SI1 7674   0.822   4.422   1.663
 7675SI     SI1 7675   0.822   4.714   1.767
 7676SI     SI1 7676   0.822   4.714   2.077
 7677SI     SI1 7677   1.075   4.568   2.180
 7678SI     SI1 7678   0.822   4.422   2.593
 7679SI     SI1 7679   1.075   4.568   2.490
 7680SI     SI1 7680   0.822   4.422   2.903
 7681SI     SI1 7681   0.822   4.714   3.007
 7682SI     SI1 7682   0.822   4.714   3.317
 7683SI     SI1 7683   1.075   4.568   3.420
 7684SI     SI1 7684   0.822   4.422   3.833
 7685SI     SI1 7685   1.075   4.568   3.730
 7686SI     SI1 7686   0.822   4.422   4.143
 7687SI     SI1 7687   0.822   4.714   4.247
 7688SI     SI1 7688   0.822   4.714   4.557
 7689SI     SI1 7689   1.075   4.568   4.660
 7690SI     SI1 7690   0.822   4.422   5.073
 7691SI     SI1 7691   1.075   4.568   4.970
 7692SI     SI1 7692   0.822   4.422   5.383
 7693SI     SI1 7693   0.822   4.714   5.487
 7694SI     SI1 7694   0.822   4.714   5.797
 7695SI     SI1 7695   1.075   4.568   5.900
 7696SI     SI1 7696   0.822   5.006   0.010
 7697SI     SI1 7697   1.075   4.860   0.113
 7698SI     SI1 7698   1.075   4.860   0.423
 7699SI     SI1 7699   1.075   5.152   0.527
 7700SI     SI1 7700   0.822   5.006   0.940
 7701SI     SI1 7701   1.075   5.152   0.837
 7702SI     SI1 7702   0.822   5.006   1.250
 7703SI     SI1 7703   1.075   4.860   1.353
 7704SI     SI1 7704   1.075   4.860   1.663
 7705SI     SI1 7705   1.075   5.152   1.767
 7706SI     SI1 7706   0.822   5.006   2.180
 7707SI     SI1 7707   1.075   5.152   2.077
 7708SI     SI1 7708   0.822   5.006   2.490
 7709SI     SI1 7709   1.075   4.860   2.593
 7710SI     SI1 7710   1.075   4.860   2.903
 7711SI     SI1 7711   1.075   5.152   3.007
 7712SI     SI1 7712   0.822   5.006   3.420
 7713SI     SI1 7713   1.075   5.152   3.317
 7714SI     SI1 7714   0.822   5.006   3.730
 7715SI     SI1 7715   1.075   4.860   3.833
 7716SI     SI1 7716   1.075   4.860   4.143
 7717SI     SI1 7717   1.075   5.152   4.247
 7718SI     SI1 7718   0.822   5.006   4.660
 7719SI     SI1 7719   1.075   5.152   4.557
 7720SI     SI1 7720   0.822   5.006   4.970
 7721SI     SI1 7721   1.075   4.860   5.073
 7722SI     SI1 7722   1.075   4.860   5.383
 7723SI     SI1 7723   1.075   5.152   5.487
 7724SI     SI1 7724   0.822   5.006   5.900
 7725SI     SI1 7725   1.075   5.152   5.797
 7726SI     SI1 7726   0.822   5.299   0.113
 7727SI     SI1 7727   1.075   5.445   0.010
 7728SI     SI1 7728   0.822   5.299   0.423
 7729SI     SI1 7729   0.822   5.591   0.527
 7730SI     SI1 7730   0.822   5.591   0.837
 7731SI     SI1 7731   1.075   5.445   0.940
 7732SI     SI1 7732   0.822   5.299   1.353
 7733SI     SI1 7733   1.075   5.445   1.250
 7734SI     SI1 7734   0.822   5.299   1.663
 7735SI     SI1 7735   0.822   5.591   1.767
 7736SI     SI1 7736   0.822   5.591   2.077
 7737SI     SI1 7737   1.075   5.445   2.180
 7738SI     SI1 7738   0.822   5.299   2.593
 7739SI     SI1 7739   1.075   5.445   2.490
 7740SI     SI1 7740   0.822   5.299   2.903
 7741SI     SI1 7741   0.822   5.591   3.007
 7742SI     SI1 7742   0.822   5.591   3.317
 7743SI     SI1 7743   1.075   5.445   3.420
 7744SI     SI1 7744   0.822   5.299   3.833
 7745SI     SI1 7745   1.075   5.445   3.730
 7746SI     SI1 7746   0.822   5.299   4.143
 7747SI     SI1 7747   0.822   5.591   4.247
 7748SI     SI1 7748   0.822   5.591   4.557
 7749SI     SI1 7749   1.075   5.445   4.660
 7750SI     SI1 7750   0.822   5.299   5.073
 7751SI     SI1 7751   1.075   5.445   4.970
 7752SI     SI1 7752   0.822   5.299   5.383
 7753SI     SI1 7753   0.822   5.591   5.487
 7754SI     SI1 7754   0.822   5.591   5.797
 7755SI     SI1 7755   1.075   5.445   5.900
 7756SI     SI1 7756   0.822   5.883   0.010
 7757SI     SI1 7757   1.075   5.737   0.113
 7758SI     SI1 7758   1.075   5.737   0.423
 7759SI     SI1 7759   1.075   6.029   0.527
 7760SI     SI1 7760   0.822   5.883   0.940
 7761SI     SI1 7761   1.075   6.029   0.837
 7762SI     SI1 7762   0.822   5.883   1.250
 7763SI     SI1 7763   1.075   5.737   1.353
 7764SI     SI1 7764   1.075   5.737   1.663
 7765SI     SI1 7765   1.075   6.029   1.767
 7766SI     SI1 7766   0.822   5.883   2.180
 7767SI     SI1 7767   1.075   6.029   2.077
 7768SI     SI1 7768   0.822   5.883   2.490
 7769SI     SI1 7769   1.075   5.737   2.593
 7770SI     SI1 7770   1.075   5.737   2.903
 7771SI     SI1 7771   1.075   6.029   3.007
 7772SI     SI1 7772   0.822   5.883   3.420
 7773SI     SI1 7773   1.075   6.029   3.317
 7774SI     SI1 7774   0.822   5.883   3.730
 7775SI     SI1 7775   1.075   5.737   3.833
 7776SI     SI1 7776   1.075   5.737   4.143
 7777SI     SI1 7777   1.075   6.029   4.247
 7778SI     SI1 7778   0.822   5.883   4.660
 7779SI     SI1 7779   1.075   6.029   4.557
 7780SI     SI1 7780   0.822   5.883   4.970
 7781SI     SI1 7781   1.075   5.737   5.073
 7782SI     SI1 7782   1.075   5.737   5.383
 7783SI     SI1 7783   1.075   6.029   5.487
 7784SI     SI1 7784   0.822   5.883   5.900
 7785SI     SI1 7785   1.075   6.029   5.797
 7786SI     SI1 7786   1.328   0.036   0.113
 7787SI     SI1 7787   1.581   0.183   0.010
 7788SI     SI1 7788   1.328   0.036   0.423
 7789SI     SI1 7789   1.328   0.329   0.527
 7790SI     SI1 7790   1.328   0.329   0.837
 7791SI     SI1 7791   1.581   0.183   0.940
 7792SI     SI1 7792   1.328   0.036   1.353
 7793SI     SI1 7793   1.581   0.183   1.250
 7794SI     SI1 7794   1.328   0.036   1.663
 7795SI     SI1 7795   1.328   0.329   1.767
 7796SI     SI1 7796   1.328   0.329   2.077
 7797SI     SI1 7797   1.581   0.183   2.180
 7798SI     SI1 7798   1.328   0.036   2.593
 7799SI     SI1 7799   1.581   0.183   2.490
 7800SI     SI1 7800   1.328   0.036   2.903
 7801SI     SI1 7801   1.328   0.329   3.007
 7802SI     SI1 7802   1.328   0.329   3.317
 7803SI     SI1 7803   1.581   0.183   3.420
 7804SI     SI1 7804   1.328   0.036   3.833
 7805SI     SI1 7805   1.581   0.183   3.730
 7806SI     SI1 7806   1.328   0.036   4.143
 7807SI     SI1 7807   1.328   0.329   4.247
 7808SI     SI1 7808   1.328   0.329   4.557
 7809SI     SI1 7809   1.581   0.183   4.660
 7810SI     SI1 7810   1.328   0.036   5.073
 7811SI     SI1 7811   1.581   0.183   4.970
 7812SI     SI1 7812   1.328   0.036   5.383
 7813SI     SI1 7813   1.328   0.329   5.487
 7814SI     SI1 7814   1.328   0.329   5.797
 7815SI     SI1 7815   1.581   0.183   5.900
 7816SI     SI1 7816   1.328   0.621   0.010
 7817SI     SI1 7817   1.581   0.475   0.113
 7818SI     SI1 7818   1.581   0.475   0.423
 7819SI     SI1 7819   1.581   0.767   0.527
 7820SI     SI1 7820   1.328   0.621   0.940
 7821SI     SI1 7821   1.581   0.767   0.837
 7822SI     SI1 7822   1.328   0.621   1.250
 7823SI     SI1 7823   1.581   0.475   1.353
 7824SI     SI1 7824   1.581   0.475   1.663
 7825SI     SI1 7825   1.581   0.767   1.767
 7826SI     SI1 7826   1.328   0.621   2.180
 7827SI     SI1 7827   1.581   0.767   2.077
 7828SI     SI1 7828   1.328   0.621   2.490
 7829SI     SI1 7829   1.581   0.475   2.593
 7830SI     SI1 7830   1.581   0.475   2.903
 7831SI     SI1 7831   1.581   0.767   3.007
 7832SI     SI1 7832   1.328   0.621   3.420
 7833SI     SI1 7833   1.581   0.767   3.317
 7834SI     SI1 7834   1.328   0.621   3.730
 7835SI     SI1 7835   1.581   0.475   3.833
 7836SI     SI1 7836   1.581   0.475   4.143
 7837SI     SI1 7837   1.581   0.767   4.247
 7838SI     SI1 7838   1.328   0.621   4.660
 7839SI     SI1 7839   1.581   0.767   4.557
 7840SI     SI1 7840   1.328   0.621   4.970
 7841SI     SI1 7841   1.581   0.475   5.073
 7842SI     SI1 7842   1.581   0.475   5.383
 7843SI     SI1 7843   1.581   0.767   5.487
 7844SI     SI1 7844   1.328   0.621   5.900
 7845SI     SI1 7845   1.581   0.767   5.797
 7846SI     SI1 7846   1.328   0.913   0.113
 7847SI     SI1 7847   1.581   1.060   0.010
 7848SI     SI1 7848   1.328   0.913   0.423
 7849SI     SI1 7849   1.581   1.060   0.940
 7850SI     SI1 7850   1.328   0.913   1.353
 7851SI     SI1 7851   1.581   1.060   1.250
 7852SI     SI1 7852   1.328   0.913   1.663
 7853SI     SI1 7853   1.581   1.060   2.180
 7854SI     SI1 7854   1.328   0.913   2.593
 7855SI     SI1 7855   1.581   1.060   2.490
 7856SI     SI1 7856   1.328   0.913   2.903
 7857SI     SI1 7857   1.581   1.060   3.420
 7858SI     SI1 7858   1.328   0.913   3.833
 7859SI     SI1 7859   1.581   1.060   3.730
 7860SI     SI1 7860   1.328   0.913   4.143
 7861SI     SI1 7861   1.581   1.060   4.660
 7862SI     SI1 7862   1.328   0.913   5.073
 7863SI     SI1 7863   1.581   1.060   4.970
 7864SI     SI1 7864   1.328   0.913   5.383
 7865SI     SI1 7865   1.581   1.060   5.900
 7866SI     SI1 7866   1.328   1.498   0.010
 7867SI     SI1 7867   1.581   1.352   0.113
 7868SI     SI1 7868   1.328   1.206   0.527
 7869SI     SI1 7869   1.581   1.352   0.423
 7870SI     SI1 7870   1.328   1.498   0.940
 7871SI     SI1 7871   1.328   1.206   0.837
 7872SI     SI1 7872   1.328   1.498   1.250
 7873SI     SI1 7873   1.581   1.352   1.353
 7874SI     SI1 7874   1.328   1.206   1.767
 7875SI     SI1 7875   1.581   1.352   1.663
 7876SI     SI1 7876   1.328   1.498   2.180
 7877SI     SI1 7877   1.328   1.206   2.077
 7878SI     SI1 7878   1.328   1.498   2.490
 7879SI     SI1 7879   1.581   1.352   2.593
 7880SI     SI1 7880   1.328   1.206   3.007
 7881SI     SI1 7881   1.581   1.352   2.903
 7882SI     SI1 7882   1.328   1.498   3.420
 7883SI     SI1 7883   1.328   1.206   3.317
 7884SI     SI1 7884   1.328   1.498   3.730
 7885SI     SI1 7885   1.581   1.352   3.833
 7886SI     SI1 7886   1.328   1.206   4.247
 7887SI     SI1 7887   1.581   1.352   4.143
 7888SI     SI1 7888   1.328   1.498   4.660
 7889SI     SI1 7889   1.328   1.206   4.557
 7890SI     SI1 7890   1.328   1.498   4.970
 7891SI     SI1 7891   1.581   1.352   5.073
 7892SI     SI1 7892   1.328   1.206   5.487
 7893SI     SI1 7893   1.581   1.352   5.383
 7894SI     SI1 7894   1.328   1.498   5.900
 7895SI     SI1 7895   1.328   1.206   5.797
 7896SI     SI1 7896   1.328   1.791   0.423
 7897SI     SI1 7897   1.328   1.791   1.663
 7898SI     SI1 7898   1.328   1.791   2.903
 7899SI     SI1 7899   1.328   1.791   4.143
 7900SI     SI1 7900   1.328   1.791   5.383
 7901SI     SI1 7901   1.328   4.422   0.113
 7902SI     SI1 7902   1.328   4.714   0.527
 7903SI     SI1 7903   1.328   4.714   0.837
 7904SI     SI1 7904   1.328   4.422   1.353
 7905SI     SI1 7905   1.328   4.714   1.767
 7906SI     SI1 7906   1.328   4.714   2.077
 7907SI     SI1 7907   1.328   4.422   2.593
 7908SI     SI1 7908   1.328   4.714   3.007
 7909SI     SI1 7909   1.328   4.714   3.317
 7910SI     SI1 7910   1.328   4.422   3.833
 7911SI     SI1 7911   1.328   4.714   4.247
 7912SI     SI1 7912   1.328   4.714   4.557
 7913SI     SI1 7913   1.328   4.422   5.073
 7914SI     SI1 7914   1.328   4.714   5.487
 7915SI     SI1 7915   1.328   4.714   5.797
 7916SI     SI1 7916   1.328   5.006   0.010
 7917SI     SI1 7917   1.581   4.860   0.113
 7918SI     SI1 7918   1.581   4.860   0.423
 7919SI     SI1 7919   1.581   5.152   0.527
 7920SI     SI1 7920   1.328   5.006   0.940
 7921SI     SI1 7921   1.581   5.152   0.837
 7922SI     SI1 7922   1.328   5.006   1.250
 7923SI     SI1 7923   1.581   4.860   1.353
 7924SI     SI1 7924   1.581   4.860   1.663
 7925SI     SI1 7925   1.581   5.152   1.767
 7926SI     SI1 7926   1.328   5.006   2.180
 7927SI     SI1 7927   1.581   5.152   2.077
 7928SI     SI1 7928   1.328   5.006   2.490
 7929SI     SI1 7929   1.581   4.860   2.593
 7930SI     SI1 7930   1.581   4.860   2.903
 7931SI     SI1 7931   1.581   5.152   3.007
 7932SI     SI1 7932   1.328   5.006   3.420
 7933SI     SI1 7933   1.581   5.152   3.317
 7934SI     SI1 7934   1.328   5.006   3.730
 7935SI     SI1 7935   1.581   4.860   3.833
 7936SI     SI1 7936   1.581   4.860   4.143
 7937SI     SI1 7937   1.581   5.152   4.247
 7938SI     SI1 7938   1.328   5.006   4.660
 7939SI     SI1 7939   1.581   5.152   4.557
 7940SI     SI1 7940   1.328   5.006   4.970
 7941SI     SI1 7941   1.581   4.860   5.073
 7942SI     SI1 7942   1.581   4.860   5.383
 7943SI     SI1 7943   1.581   5.152   5.487
 7944SI     SI1 7944   1.328   5.006   5.900
 7945SI     SI1 7945   1.581   5.152   5.797
 7946SI     SI1 7946   1.328   5.299   0.113
 7947SI     SI1 7947   1.581   5.445   0.010
 7948SI     SI1 7948   1.328   5.299   0.423
 7949SI     SI1 7949   1.328   5.591   0.527
 7950SI     SI1 7950   1.328   5.591   0.837
 7951SI     SI1 7951   1.581   5.445   0.940
 7952SI     SI1 7952   1.328   5.299   1.353
 7953SI     SI1 7953   1.581   5.445   1.250
 7954SI     SI1 7954   1.328   5.299   1.663
 7955SI     SI1 7955   1.328   5.591   1.767
 7956SI     SI1 7956   1.328   5.591   2.077
 7957SI     SI1 7957   1.581   5.445   2.180
 7958SI     SI1 7958   1.328   5.299   2.593
 7959SI     SI1 7959   1.581   5.445   2.490
 7960SI     SI1 7960   1.328   5.299   2.903
 7961SI     SI1 7961   1.328   5.591   3.007
 7962SI     SI1 7962   1.328   5.591   3.317
 7963SI     SI1 7963   1.581   5.445   3.420
 7964SI     SI1 7964   1.328   5.299   3.833
 7965SI     SI1 7965   1.581   5.445   3.730
 7966SI     SI1 7966   1.328   5.299   4.143
 7967SI     SI1 7967   1.328   5.591   4.247
 7968SI     SI1 7968   1.328   5.591   4.557
 7969SI     SI1 7969   1.581   5.445   4.660
 7970SI     SI1 7970   1.328   5.299   5.073
 7971SI     SI1 7971   1.581   5.445   4.970
 7972SI     SI1 7972   1.328   5.299   5.383
 7973SI     SI1 7973   1.328   5.591   5.487
 7974SI     SI1 7974   1.328   5.591   5.797
 7975SI     SI1 7975   1.581   5.445   5.900
 7976SI     SI1 7976   1.328   5.883   0.010
 7977SI     SI1 7977   1.581   5.737   0.113
 7978SI     SI1 7978   1.581   5.737   0.423
 7979SI     SI1 7979   1.581   6.029   0.527
 7980SI     SI1 7980   1.328   5.883   0.940
 7981SI     SI1 7981   1.581   6.029   0.837
 7982SI     SI1 7982   1.328   5.883   1.250
 7983SI     SI1 7983   1.581   5.737   1.353
 7984SI     SI1 7984   1.581   5.737   1.663
 7985SI     SI1 7985   1.581   6.029   1.767
 7986SI     SI1 7986   1.328   5.883   2.180
 7987SI     SI1 7987   1.581   6.029   2.077
 7988SI     SI1 7988   1.328   5.883   2.490
 7989SI     SI1 7989   1.581   5.737   2.593
 7990SI     SI1 7990   1.581   5.737   2.903
 7991SI     SI1 7991   1.581   6.029   3.007
 7992SI     SI1 7992   1.328   5.883   3.420
 7993SI     SI1 7993   1.581   6.029   3.317
 7994SI     SI1 7994   1.328   5.883   3.730
 7995SI     SI1 7995   1.581   5.737   3.833
 7996SI     SI1 7996   1.581   5.737   4.143
 7997SI     SI1 7997   1.581   6.029   4.247
 7998SI     SI1 7998   1.328   5.883   4.660
 7999SI     SI1 7999   1.581   6.029   4.557
 8000SI     SI1 8000   1.328   5.883   4.970
 8001SI     SI1 8001   1.581   5.737   5.073
 8002SI     SI1 8002   1.581   5.737   5.383
 8003SI     SI1 8003   1.581   6.029   5.487
 8004SI     SI1 8004   1.328   5.883   5.900
 8005SI     SI1 8005   1.581   6.029   5.797
 8006SI     SI1 8006   1.834   0.036   0.113
 8007SI     SI1 8007   1.834   0.036   0.423
 8008SI     SI1 8008   1.834   0.329   0.527
 8009SI     SI1 8009   1.834   0.329   0.837
 8010SI     SI1 8010   1.834   0.036   1.353
 8011SI     SI1 8011   1.834   0.036   1.663
 8012SI     SI1 8012   1.834   0.329   1.767
 8013SI     SI1 8013   1.834   0.329   2.077
 8014SI     SI1 8014   1.834   0.036   2.593
 8015SI     SI1 8015   1.834   0.036   2.903
 8016SI     SI1 8016   1.834   0.329   3.007
 8017SI     SI1 8017   1.834   0.329   3.317
 8018SI     SI1 8018   1.834   0.036   3.833
 8019SI     SI1 8019   1.834   0.036   4.143
 8020SI     SI1 8020   1.834   0.329   4.247
 8021SI     SI1 8021   1.834   0.329   4.557
 8022SI     SI1 8022   1.834   0.036   5.073
 8023SI     SI1 8023   1.834   0.036   5.383
 8024SI     SI1 8024   1.834   0.329   5.487
 8025SI     SI1 8025   1.834   0.329   5.797
 8026SI     SI1 8026   1.834   0.621   0.010
 8027SI     SI1 8027   1.834   0.621   0.940
 8028SI     SI1 8028   1.834   0.621   1.250
 8029SI     SI1 8029   1.834   0.621   2.180
 8030SI     SI1 8030   1.834   0.621   2.490
 8031SI     SI1 8031   1.834   0.621   3.420
 8032SI     SI1 8032   1.834   0.621   3.730
 8033SI     SI1 8033   1.834   0.621   4.660
 8034SI     SI1 8034   1.834   0.621   4.970
 8035SI     SI1 8035   1.834   0.621   5.900
 8036SI     SI1 8036   1.834   0.913   0.113
 8037SI     SI1 8037   1.834   0.913   0.423
 8038SI     SI1 8038   1.834   0.913   1.353
 8039SI     SI1 8039   1.834   0.913   1.663
 8040SI     SI1 8040   1.834   0.913   2.593
 8041SI     SI1 8041   1.834   0.913   2.903
 8042SI     SI1 8042   1.834   0.913   3.833
 8043SI     SI1 8043   1.834   0.913   4.143
 8044SI     SI1 8044   1.834   0.913   5.073
 8045SI     SI1 8045   1.834   0.913   5.383
 8046SI     SI1 8046   1.834   1.206   0.527
 8047SI     SI1 8047   1.834   1.206   0.837
 8048SI     SI1 8048   1.834   1.206   1.767
 8049SI     SI1 8049   1.834   1.206   2.077
 8050SI     SI1 8050   1.834   1.206   3.007
 8051SI     SI1 8051   1.834   1.206   3.317
 8052SI     SI1 8052   1.834   1.206   4.247
 8053SI     SI1 8053   1.834   1.206   4.557
 8054SI     SI1 8054   1.834   1.206   5.487
 8055SI     SI1 8055   1.834   1.206   5.797
 8056SI     SI1 8056   1.834   5.006   0.010
 8057SI     SI1 8057   1.834   5.006   0.940
 8058SI     SI1 8058   1.834   5.006   1.250
 8059SI     SI1 8059   1.834   5.006   2.180
 8060SI     SI1 8060   1.834   5.006   2.490
 8061SI     SI1 8061   1.834   5.006   3.420
 8062SI     SI1 8062   1.834   5.006   3.730
 8063SI     SI1 8063   1.834   5.006   4.660
 8064SI     SI1 8064   1.834   5.006   4.970
 8065SI     SI1 8065   1.834   5.006   5.900
 8066SI     SI1 8066   1.834   5.299   0.113
 8067SI     SI1 8067   1.834   5.299   0.423
 8068SI     SI1 8068   1.834   5.591   0.527
 8069SI     SI1 8069   1.834   5.591   0.837
 8070SI     SI1 8070   1.834   5.299   1.353
 8071SI     SI1 8071   1.834   5.299   1.663
 8072SI     SI1 8072   1.834   5.591   1.767
 8073SI     SI1 8073   1.834   5.591   2.077
 8074SI     SI1 8074   1.834   5.299   2.593
 8075SI     SI1 8075   1.834   5.299   2.903
 8076SI     SI1 8076   1.834   5.591   3.007
 8077SI     SI1 8077   1.834   5.591   3.317
 8078SI     SI1 8078   1.834   5.299   3.833
 8079SI     SI1 8079   1.834   5.299   4.143
 8080SI     SI1 8080   1.834   5.591   4.247
 8081SI     SI1 8081   1.834   5.591   4.557
 8082SI     SI1 8082   1.834   5.299   5.073
 8083SI     SI1 8083   1.834   5.299   5.383
 8084SI     SI1 8084   1.834   5.591   5.487
 8085SI     SI1 8085   1.834   5.591   5.797
 8086SI     SI1 8086   1.834   5.883   0.010
 8087SI     SI1 8087   1.834   5.883   0.940
 8088SI     SI1 8088   1.834   5.883   1.250
 8089SI     SI1 8089   1.834   5.883   2.180
 8090SI     SI1 8090   1.834   5.883   2.490
 8091SI     SI1 8091   1.834   5.883   3.420
 8092SI     SI1 8092   1.834   5.883   3.730
 8093SI     SI1 8093   1.834   5.883   4.660
 8094SI     SI1 8094   1.834   5.883   4.970
 8095SI     SI1 8095   1.834   5.883   5.900
 8096SI     SI1 8096   2.340   0.036   0.113
 8097SI     SI1 8097   2.087   0.183   0.010
 8098SI     SI1 8098   2.340   0.036   0.423
 8099SI     SI1 8099   2.340   0.329   0.527
 8100SI     SI1 8100   2.340   0.329   0.837
 8101SI     SI1 8101   2.087   0.183   0.940
 8102SI     SI1 8102   2.340   0.036   1.353
 8103SI     SI1 8103   2.087   0.183   1.250
 8104SI     SI1 8104   2.340   0.036   1.663
 8105SI     SI1 8105   2.340   0.329   1.767
 8106SI     SI1 8106   2.340   0.329   2.077
 8107SI     SI1 8107   2.087   0.183   2.180
 8108SI     SI1 8108   2.340   0.036   2.593
 8109SI     SI1 8109   2.087   0.183   2.490
 8110SI     SI1 8110   2.340   0.036   2.903
 8111SI     SI1 8111   2.340   0.329   3.007
 8112SI     SI1 8112   2.340   0.329   3.317
 8113SI     SI1 8113   2.087   0.183   3.420
 8114SI     SI1 8114   2.340   0.036   3.833
 8115SI     SI1 8115   2.087   0.183   3.730
 8116SI     SI1 8116   2.340   0.036   4.143
 8117SI     SI1 8117   2.340   0.329   4.247
 8118SI     SI1 8118   2.340   0.329   4.557
 8119SI     SI1 8119   2.087   0.183   4.660
 8120SI     SI1 8120   2.340   0.036   5.073
 8121SI     SI1 8121   2.087   0.183   4.970
 8122SI     SI1 8122   2.340   0.036   5.383
 8123SI     SI1 8123   2.340   0.329   5.487
 8124SI     SI1 8124   2.340   0.329   5.797
 8125SI     SI1 8125   2.087   0.183   5.900
 8126SI     SI1 8126   2.340   0.621   0.010
 8127SI     SI1 8127   2.087   0.475   0.113
 8128SI     SI1 8128   2.087   0.475   0.423
 8129SI     SI1 8129   2.087   0.767   0.527
 8130SI     SI1 8130   2.340   0.621   0.940
 8131SI     SI1 8131   2.087   0.767   0.837
 8132SI     SI1 8132   2.340   0.621   1.250
 8133SI     SI1 8133   2.087   0.475   1.353
 8134SI     SI1 8134   2.087   0.475   1.663
 8135SI     SI1 8135   2.087   0.767   1.767
 8136SI     SI1 8136   2.340   0.621   2.180
 8137SI     SI1 8137   2.087   0.767   2.077
 8138SI     SI1 8138   2.340   0.621   2.490
 8139SI     SI1 8139   2.087   0.475   2.593
 8140SI     SI1 8140   2.087   0.475   2.903
 8141SI     SI1 8141   2.087   0.767   3.007
 8142SI     SI1 8142   2.340   0.621   3.420
 8143SI     SI1 8143   2.087   0.767   3.317
 8144SI     SI1 8144   2.340   0.621   3.730
 8145SI     SI1 8145   2.087   0.475   3.833
 8146SI     SI1 8146   2.087   0.475   4.143
 8147SI     SI1 8147   2.087   0.767   4.247
 8148SI     SI1 8148   2.340   0.621   4.660
 8149SI     SI1 8149   2.087   0.767   4.557
 8150SI     SI1 8150   2.340   0.621   4.970
 8151SI     SI1 8151   2.087   0.475   5.073
 8152SI     SI1 8152   2.087   0.475   5.383
 8153SI     SI1 8153   2.087   0.767   5.487
 8154SI     SI1 8154   2.340   0.621   5.900
 8155SI     SI1 8155   2.087   0.767   5.797
 8156SI     SI1 8156   2.340   0.913   0.113
 8157SI     SI1 8157   2.087   1.060   0.010
 8158SI     SI1 8158   2.340   0.913   0.423
 8159SI     SI1 8159   2.087   1.060   0.940
 8160SI     SI1 8160   2.340   0.913   1.353
 8161SI     SI1 8161   2.087   1.060   1.250
 8162SI     SI1 8162   2.340   0.913   1.663
 8163SI     SI1 8163   2.087   1.060   2.180
 8164SI     SI1 8164   2.340   0.913   2.593
 8165SI     SI1 8165   2.087   1.060   2.490
 8166SI     SI1 8166   2.340   0.913   2.903
 8167SI     SI1 8167   2.087   1.060   3.420
 8168SI     SI1 8168   2.340   0.913   3.833
 8169SI     SI1 8169   2.087   1.060   3.730
 8170SI     SI1 8170   2.340   0.913   4.143
 8171SI     SI1 8171   2.087   1.060   4.660
 8172SI     SI1 8172   2.340   0.913   5.073
 8173SI     SI1 8173   2.087   1.060   4.970
 8174SI     SI1 8174   2.340   0.913   5.383
 8175SI     SI1 8175   2.087   1.060   5.900
 8176SI     SI1 8176   2.087   5.152   0.527
 8177SI     SI1 8177   2.087   5.152   0.837
 8178SI     SI1 8178   2.087   5.152   1.767
 8179SI     SI1 8179   2.087   5.152   2.077
 8180SI     SI1 8180   2.087   5.152   3.007
 8181SI     SI1 8181   2.087   5.152   3.317
 8182SI     SI1 8182   2.087   5.152   4.247
 8183SI     SI1 8183   2.087   5.152   4.557
 8184SI     SI1 8184   2.087   5.152   5.487
 8185SI     SI1 8185   2.087   5.152   5.797
 8186SI     SI1 8186   2.340   5.299   0.113
 8187SI     SI1 8187   2.087   5.445   0.010
 8188SI     SI1 8188   2.340   5.299   0.423
 8189SI     SI1 8189   2.340   5.591   0.527
 8190SI     SI1 8190   2.340   5.591   0.837
 8191SI     SI1 8191   2.087   5.445   0.940
 8192SI     SI1 8192   2.340   5.299   1.353
 8193SI     SI1 8193   2.087   5.445   1.250
 8194SI     SI1 8194   2.340   5.299   1.663
 8195SI     SI1 8195   2.340   5.591   1.767
 8196SI     SI1 8196   2.340   5.591   2.077
 8197SI     SI1 8197   2.087   5.445   2.180
 8198SI     SI1 8198   2.340   5.299   2.593
 8199SI     SI1 8199   2.087   5.445   2.490
 8200SI     SI1 8200   2.340   5.299   2.903
 8201SI     SI1 8201   2.340   5.591   3.007
 8202SI     SI1 8202   2.340   5.591   3.317
 8203SI     SI1 8203   2.087   5.445   3.420
 8204SI     SI1 8204   2.340   5.299   3.833
 8205SI     SI1 8205   2.087   5.445   3.730
 8206SI     SI1 8206   2.340   5.299   4.143
 8207SI     SI1 8207   2.340   5.591   4.247
 8208SI     SI1 8208   2.340   5.591   4.557
 8209SI     SI1 8209   2.087   5.445   4.660
 8210SI     SI1 8210   2.340   5.299   5.073
 8211SI     SI1 8211   2.087   5.445   4.970
 8212SI     SI1 8212   2.340   5.299   5.383
 8213SI     SI1 8213   2.340   5.591   5.487
 8214SI     SI1 8214   2.340   5.591   5.797
 8215SI     SI1 8215   2.087   5.445   5.900
 8216SI     SI1 8216   2.340   5.883   0.010
 8217SI     SI1 8217   2.087   5.737   0.113
 8218SI     SI1 8218   2.087   5.737   0.423
 8219SI     SI1 8219   2.087   6.029   0.527
 8220SI     SI1 8220   2.340   5.883   0.940
 8221SI     SI1 8221   2.087   6.029   0.837
 8222SI     SI1 8222   2.340   5.883   1.250
 8223SI     SI1 8223   2.087   5.737   1.353
 8224SI     SI1 8224   2.087   5.737   1.663
 8225SI     SI1 8225   2.087   6.029   1.767
 8226SI     SI1 8226   2.340   5.883   2.180
 8227SI     SI1 8227   2.087   6.029   2.077
 8228SI     SI1 8228   2.340   5.883   2.490
 8229SI     SI1 8229   2.087   5.737   2.593
 8230SI     SI1 8230   2.087   5.737   2.903
 8231SI     SI1 8231   2.087   6.029   3.007
 8232SI     SI1 8232   2.340   5.883   3.420
 8233SI     SI1 8233   2.087   6.029   3.317
 8234SI     SI1 8234   2.340   5.883   3.730
 8235SI     SI1 8235   2.087   5.737   3.833
 8236SI     SI1 8236   2.087   5.737   4.143
 8237SI     SI1 8237   2.087   6.029   4.247
 8238SI     SI1 8238   2.340   5.883   4.660
 8239SI     SI1 8239   2.087   6.029   4.557
 8240SI     SI1 8240   2.340   5.883   4.970
 8241SI     SI1 8241   2.087   5.737   5.073
 8242SI     SI1 8242   2.087   5.737   5.383
 8243SI     SI1 8243   2.087   6.029   5.487
 8244SI     SI1 8244   2.340   5.883   5.900
 8245SI     SI1 8245   2.087   6.029   5.797
 8246SI     SI1 8246   2.593   0.183   0.010
 8247SI     SI1 8247   2.593   0.183   0.940
 8248SI     SI1 8248   2.593   0.183   1.250
 8249SI     SI1 8249   2.593   0.183   2.180
 8250SI     SI1 8250   2.593   0.183   2.490
 8251SI     SI1 8251   2.593   0.183   3.420
 8252SI     SI1 8252   2.593   0.183   3.730
 8253SI     SI1 8253   2.593   0.183   4.660
 8254SI     SI1 8254   2.593   0.183   4.970
 8255SI     SI1 8255   2.593   0.183   5.900
 8256SI     SI1 8256   2.593   0.475   0.113
 8257SI     SI1 8257   2.593   0.475   0.423
 8258SI     SI1 8258   2.593   0.767   0.527
 8259SI     SI1 8259   2.593   0.767   0.837
 8260SI     SI1 8260   2.593   0.475   1.353
 8261SI     SI1 8261   2.593   0.475   1.663
 8262SI     SI1 8262   2.593   0.767   1.767
 8263SI     SI1 8263   2.593   0.767   2.077
 8264SI     SI1 8264   2.593   0.475   2.593
 8265SI     SI1 8265   2.593   0.475   2.903
 8266SI     SI1 8266   2.593   0.767   3.007
 8267SI     SI1 8267   2.593   0.767   3.317
 8268SI     SI1 8268   2.593   0.475   3.833
 8269SI     SI1 8269   2.593   0.475   4.143
 8270SI     SI1 8270   2.593   0.767   4.247
 8271SI     SI1 8271   2.593   0.767   4.557
 8272SI     SI1 8272   2.593   0.475   5.073
 8273SI     SI1 8273   2.593   0.475   5.383
 8274SI     SI1 8274   2.593   0.767   5.487
 8275SI     SI1 8275   2.593   0.767   5.797
 8276SI     SI1 8276   2.593   5.152   0.837
 8277SI     SI1 8277   2.593   5.152   2.077
 8278SI     SI1 8278   2.593   5.152   3.317
 8279SI     SI1 8279   2.593   5.152   4.557
 8280SI     SI1 8280   2.593   5.152   5.797
 8281SI     SI1 8281   2.593   5.445   0.010
 8282SI     SI1 8282   2.593   5.445   0.940
 8283SI     SI1 8283   2.593   5.445   1.250
 8284SI     SI1 8284   2.593   5.445   2.180
 8285SI     SI1 8285   2.593   5.445   2.490
 8286SI     SI1 8286   2.593   5.445   3.420
 8287SI     SI1 8287   2.593   5.445   3.730
 8288SI     SI1 8288   2.593   5.445   4.660
 8289SI     SI1 8289   2.593   5.445   4.970
 8290SI     SI1 8290   2.593   5.445   5.900
 8291SI     SI1 8291   2.593   5.737   0.113
 8292SI     SI1 8292   2.593   5.737   0.423
 8293SI     SI1 8293   2.593   6.029   0.527
 8294SI     SI1 8294   2.593   6.029   0.837
 8295SI     SI1 8295   2.593   5.737   1.353
 8296SI     SI1 8296   2.593   5.737   1.663
 8297SI     SI1 8297   2.593   6.029   1.767
 8298SI     SI1 8298   2.593   6.029   2.077
 8299SI     SI1 8299   2.593   5.737   2.593
 8300SI     SI1 8300   2.593   5.737   2.903
 8301SI     SI1 8301   2.593   6.029   3.007
 8302SI     SI1 8302   2.593   6.029   3.317
 8303SI     SI1 8303   2.593   5.737   3.833
 8304SI     SI1 8304   2.593   5.737   4.143
 8305SI     SI1 8305   2.593   6.029   4.247
 8306SI     SI1 8306   2.593   6.029   4.557
 8307SI     SI1 8307   2.593   5.737   5.073
 8308SI     SI1 8308   2.593   5.737   5.383
 8309SI     SI1 8309   2.593   6.029   5.487
 8310SI     SI1 8310   2.593   6.029   5.797
 8311SI     SI1 8311   2.846   0.036   0.113
 8312SI     SI1 8312   3.099   0.183   0.010
 8313SI     SI1 8313   2.846   0.036   0.423
 8314SI     SI1 8314   2.846   0.329   0.527
 8315SI     SI1 8315   2.846   0.329   0.837
 8316SI     SI1 8316   3.099   0.183   0.940
 8317SI     SI1 8317   2.846   0.036   1.353
 8318SI     SI1 8318   3.099   0.183   1.250
 8319SI     SI1 8319   2.846   0.036   1.663
 8320SI     SI1 8320   2.846   0.329   1.767
 8321SI     SI1 8321   2.846   0.329   2.077
 8322SI     SI1 8322   3.099   0.183   2.180
 8323SI     SI1 8323   2.846   0.036   2.593
 8324SI     SI1 8324   3.099   0.183   2.490
 8325SI     SI1 8325   2.846   0.036   2.903
 8326SI     SI1 8326   2.846   0.329   3.007
 8327SI     SI1 8327   2.846   0.329   3.317
 8328SI     SI1 8328   3.099   0.183   3.420
 8329SI     SI1 8329   2.846   0.036   3.833
 8330SI     SI1 8330   3.099   0.183   3.730
 8331SI     SI1 8331   2.846   0.036   4.143
 8332SI     SI1 8332   2.846   0.329   4.247
 8333SI     SI1 8333   2.846   0.329   4.557
 8334SI     SI1 8334   3.099   0.183   4.660
 8335SI     SI1 8335   2.846   0.036   5.073
 8336SI     SI1 8336   3.099   0.183   4.970
 8337SI     SI1 8337   2.846   0.036   5.383
 8338SI     SI1 8338   2.846   0.329   5.487
 8339SI     SI1 8339   2.846   0.329   5.797
 8340SI     SI1 8340   3.099   0.183   5.900
 8341SI     SI1 8341   2.846   0.621   0.010
 8342SI     SI1 8342   3.099   0.475   0.113
 8343SI     SI1 8343   3.099   0.475   0.423
 8344SI     SI1 8344   3.099   0.767   0.527
 8345SI     SI1 8345   2.846   0.621   0.940
 8346SI     SI1 8346   3.099   0.767   0.837
 8347SI     SI1 8347   2.846   0.621   1.250
 8348SI     SI1 8348   3.099   0.475   1.353
 8349SI     SI1 8349   3.099   0.475   1.663
 8350SI     SI1 8350   3.099   0.767   1.767
 8351SI     SI1 8351   2.846   0.621   2.180
 8352SI     SI1 8352   3.099   0.767   2.077
 8353SI     SI1 8353   2.846   0.621   2.490
 8354SI     SI1 8354   3.099   0.475   2.593
 8355SI     SI1 8355   3.099   0.475   2.903
 8356SI     SI1 8356   3.099   0.767   3.007
 8357SI     SI1 8357   2.846   0.621   3.420
 8358SI     SI1 8358   3.099   0.767   3.317
 8359SI     SI1 8359   2.846   0.621   3.730
 8360SI     SI1 8360   3.099   0.475   3.833
 8361SI     SI1 8361   3.099   0.475   4.143
 8362SI     SI1 8362   3.099   0.767   4.247
 8363SI     SI1 8363   2.846   0.621   4.660
 8364SI     SI1 8364   3.099   0.767   4.557
 8365SI     SI1 8365   2.846   0.621   4.970
 8366SI     SI1 8366   3.099   0.475   5.073
 8367SI     SI1 8367   3.099   0.475   5.383
 8368SI     SI1 8368   3.099   0.767   5.487
 8369SI     SI1 8369   2.846   0.621   5.900
 8370SI     SI1 8370   3.099   0.767   5.797
 8371SI     SI1 8371   2.846   0.913   0.113
 8372SI     SI1 8372   2.846   0.913   1.353
 8373SI     SI1 8373   2.846   0.913   2.593
 8374SI     SI1 8374   2.846   0.913   3.833
 8375SI     SI1 8375   2.846   0.913   5.073
 8376SI     SI1 8376   3.099   5.152   0.837
 8377SI     SI1 8377   3.099   5.152   2.077
 8378SI     SI1 8378   3.099   5.152   3.317
 8379SI     SI1 8379   3.099   5.152   4.557
 8380SI     SI1 8380   3.099   5.152   5.797
 8381SI     SI1 8381   2.846   5.299   0.113
 8382SI     SI1 8382   3.099   5.445   0.010
 8383SI     SI1 8383   2.846   5.299   0.423
 8384SI     SI1 8384   2.846   5.591   0.527
 8385SI     SI1 8385   2.846   5.591   0.837
 8386SI     SI1 8386   3.099   5.445   0.940
 8387SI     SI1 8387   2.846   5.299   1.353
 8388SI     SI1 8388   3.099   5.445   1.250
 8389SI     SI1 8389   2.846   5.299   1.663
 8390SI     SI1 8390   2.846   5.591   1.767
 8391SI     SI1 8391   2.846   5.591   2.077
 8392SI     SI1 8392   3.099   5.445   2.180
 8393SI     SI1 8393   2.846   5.299   2.593
 8394SI     SI1 8394   3.099   5.445   2.490
 8395SI     SI1 8395   2.846   5.299   2.903
 8396SI     SI1 8396   2.846   5.591   3.007
 8397SI     SI1 8397   2.846   5.591   3.317
 8398SI     SI1 8398   3.099   5.445   3.420
 8399SI     SI1 8399   2.846   5.299   3.833
 8400SI     SI1 8400   3.099   5.445   3.730
 8401SI     SI1 8401   2.846   5.299   4.143
 8402SI     SI1 8402   2.846   5.591   4.247
 8403SI     SI1 8403   2.846   5.591   4.557
 8404SI     SI1 8404   3.099   5.445   4.660
 8405SI     SI1 8405   2.846   5.299   5.073
 8406SI     SI1 8406   3.099   5.445   4.970
 8407SI     SI1 8407   2.846   5.299   5.383
 8408SI     SI1 8408   2.846   5.591   5.487
 8409SI     SI1 8409   2.846   5.591   5.797
 8410SI     SI1 8410   3.099   5.445   5.900
 8411SI     SI1 8411   2.846   5.883   0.010
 8412SI     SI1 8412   3.099   5.737   0.113
 8413SI     SI1 8413   3.099   5.737   0.423
 8414SI     SI1 8414   3.099   6.029   0.527
 8415SI     SI1 8415   2.846   5.883   0.940
 8416SI     SI1 8416   3.099   6.029   0.837
 8417SI     SI1 8417   2.846   5.883   1.250
 8418SI     SI1 8418   3.099   5.737   1.353
 8419SI     SI1 8419   3.099   5.737   1.663
 8420SI     SI1 8420   3.099   6.029   1.767
 8421SI     SI1 8421   2.846   5.883   2.180
 8422SI     SI1 8422   3.099   6.029   2.077
 8423SI     SI1 8423   2.846   5.883   2.490
 8424SI     SI1 8424   3.099   5.737   2.593
 8425SI     SI1 8425   3.099   5.737   2.903
 8426SI     SI1 8426   3.099   6.029   3.007
 8427SI     SI1 8427   2.846   5.883   3.420
 8428SI     SI1 8428   3.099   6.029   3.317
 8429SI     SI1 8429   2.846   5.883   3.730
 8430SI     SI1 8430   3.099   5.737   3.833
 8431SI     SI1 8431   3.099   5.737   4.143
 8432SI     SI1 8432   3.099   6.029   4.247
 8433SI     SI1 8433   2.846   5.883   4.660
 8434SI     SI1 8434   3.099   6.029   4.557
 8435SI     SI1 8435   2.846   5.883   4.970
 8436SI     SI1 8436   3.099   5.737   5.073
 8437SI     SI1 8437   3.099   5.737   5.383
 8438SI     SI1 8438   3.099   6.029   5.487
 8439SI     SI1 8439   2.846   5.883   5.900
 8440SI     SI1 8440   3.099   6.029   5.797
 8441SI     SI1 8441   3.352   0.036   0.113
 8442SI     SI1 8442   3.352   0.036   0.423
 8443SI     SI1 8443   3.352   0.329   0.527
 8444SI     SI1 8444   3.352   0.329   0.837
 8445SI     SI1 8445   3.352   0.036   1.353
 8446SI     SI1 8446   3.352   0.036   1.663
 8447SI     SI1 8447   3.352   0.329   1.767
 8448SI     SI1 8448   3.352   0.329   2.077
 8449SI     SI1 8449   3.352   0.036   2.593
 8450SI     SI1 8450   3.352   0.036   2.903
 8451SI     SI1 8451   3.352   0.329   3.007
 8452SI     SI1 8452   3.352   0.329   3.317
 8453SI     SI1 8453   3.352   0.036   3.833
 8454SI     SI1 8454   3.352   0.036   4.143
 8455SI     SI1 8455   3.352   0.329   4.247
 8456SI     SI1 8456   3.352   0.329   4.557
 8457SI     SI1 8457   3.352   0.036   5.073
 8458SI     SI1 8458   3.352   0.036   5.383
 8459SI     SI1 8459   3.352   0.329   5.487
 8460SI     SI1 8460   3.352   0.329   5.797
 8461SI     SI1 8461   3.352   0.621   0.010
 8462SI     SI1 8462   3.352   0.621   0.940
 8463SI     SI1 8463   3.352   0.621   1.250
 8464SI     SI1 8464   3.352   0.621   2.180
 8465SI     SI1 8465   3.352   0.621   2.490
 8466SI     SI1 8466   3.352   0.621   3.420
 8467SI     SI1 8467   3.352   0.621   3.730
 8468SI     SI1 8468   3.352   0.621   4.660
 8469SI     SI1 8469   3.352   0.621   4.970
 8470SI     SI1 8470   3.352   0.621   5.900
 8471SI     SI1 8471   3.352   0.913   0.113
 8472SI     SI1 8472   3.352   0.913   1.353
 8473SI     SI1 8473   3.352   0.913   2.593
 8474SI     SI1 8474   3.352   0.913   3.833
 8475SI     SI1 8475   3.352   0.913   5.073
 8476SI     SI1 8476   3.352   5.299   0.113
 8477SI     SI1 8477   3.352   5.299   0.423
 8478SI     SI1 8478   3.352   5.591   0.527
 8479SI     SI1 8479   3.352   5.591   0.837
 8480SI     SI1 8480   3.352   5.299   1.353
 8481SI     SI1 8481   3.352   5.299   1.663
 8482SI     SI1 8482   3.352   5.591   1.767
 8483SI     SI1 8483   3.352   5.591   2.077
 8484SI     SI1 8484   3.352   5.299   2.593
 8485SI     SI1 8485   3.352   5.299   2.903
 8486SI     SI1 8486   3.352   5.591   3.007
 8487SI     SI1 8487   3.352   5.591   3.317
 8488SI     SI1 8488   3.352   5.299   3.833
 8489SI     SI1 8489   3.352   5.299   4.143
 8490SI     SI1 8490   3.352   5.591   4.247
 8491SI     SI1 8491   3.352   5.591   4.557
 8492SI     SI1 8492   3.352   5.299   5.073
 8493SI     SI1 8493   3.352   5.299   5.383
 8494SI     SI1 8494   3.352   5.591   5.487
 8495SI     SI1 8495   3.352   5.591   5.797
 8496SI     SI1 8496   3.352   5.883   0.010
 8497SI     SI1 8497   3.352   5.883   0.940
 8498SI     SI1 8498   3.352   5.883   1.250
 8499SI     SI1 8499   3.352   5.883   2.180
 8500SI     SI1 8500   3.352   5.883   2.490
 8501SI     SI1 8501   3.352   5.883   3.420
 8502SI     SI1 8502   3.352   5.883   3.730
 8503SI     SI1 8503   3.352   5.883   4.660
 8504SI     SI1 8504   3.352   5.883   4.970
 8505SI     SI1 8505   3.352   5.883   5.900
 8506SI     SI1 8506   3.858   0.036   0.113
 8507SI     SI1 8507   3.605   0.183   0.010
 8508SI     SI1 8508   3.858   0.036   0.423
 8509SI     SI1 8509   3.858   0.329   0.527
 8510SI     SI1 8510   3.858   0.329   0.837
 8511SI     SI1 8511   3.605   0.183   0.940
 8512SI     SI1 8512   3.858   0.036   1.353
 8513SI     SI1 8513   3.605   0.183   1.250
 8514SI     SI1 8514   3.858   0.036   1.663
 8515SI     SI1 8515   3.858   0.329   1.767
 8516SI     SI1 8516   3.858   0.329   2.077
 8517SI     SI1 8517   3.605   0.183   2.180
 8518SI     SI1 8518   3.858   0.036   2.593
 8519SI     SI1 8519   3.605   0.183   2.490
 8520SI     SI1 8520   3.858   0.036   2.903
 8521SI     SI1 8521   3.858   0.329   3.007
 8522SI     SI1 8522   3.858   0.329   3.317
 8523SI     SI1 8523   3.605   0.183   3.420
 8524SI     SI1 8524   3.858   0.036   3.833
 8525SI     SI1 8525   3.605   0.183   3.730
 8526SI     SI1 8526   3.858   0.036   4.143
 8527SI     SI1 8527   3.858   0.329   4.247
 8528SI     SI1 8528   3.858   0.329   4.557
 8529SI     SI1 8529   3.605   0.183   4.660
 8530SI     SI1 8530   3.858   0.036   5.073
 8531SI     SI1 8531   3.605   0.183   4.970
 8532SI     SI1 8532   3.858   0.036   5.383
 8533SI     SI1 8533   3.858   0.329   5.487
 8534SI     SI1 8534   3.858   0.329   5.797
 8535SI     SI1 8535   3.605   0.183   5.900
 8536SI     SI1 8536   3.858   0.621   0.010
 8537SI     SI1 8537   3.605   0.475   0.113
 8538SI     SI1 8538   3.605   0.475   0.423
 8539SI     SI1 8539   3.605   0.767   0.527
 8540SI     SI1 8540   3.858   0.621   0.940
 8541SI     SI1 8541   3.605   0.767   0.837
 8542SI     SI1 8542   3.858   0.621   1.250
 8543SI     SI1 8543   3.605   0.475   1.353
 8544SI     SI1 8544   3.605   0.475   1.663
 8545SI     SI1 8545   3.605   0.767   1.767
 8546SI     SI1 8546   3.858   0.621   2.180
 8547SI     SI1 8547   3.605   0.767   2.077
 8548SI     SI1 8548   3.858   0.621   2.490
 8549SI     SI1 8549   3.605   0.475   2.593
 8550SI     SI1 8550   3.605   0.475   2.903
 8551SI     SI1 8551   3.605   0.767   3.007
 8552SI     SI1 8552   3.858   0.621   3.420
 8553SI     SI1 8553   3.605   0.767   3.317
 8554SI     SI1 8554   3.858   0.621   3.730
 8555SI     SI1 8555   3.605   0.475   3.833
 8556SI     SI1 8556   3.605   0.475   4.143
 8557SI     SI1 8557   3.605   0.767   4.247
 8558SI     SI1 8558   3.858   0.621   4.660
 8559SI     SI1 8559   3.605   0.767   4.557
 8560SI     SI1 8560   3.858   0.621   4.970
 8561SI     SI1 8561   3.605   0.475   5.073
 8562SI     SI1 8562   3.605   0.475   5.383
 8563SI     SI1 8563   3.605   0.767   5.487
 8564SI     SI1 8564   3.858   0.621   5.900
 8565SI     SI1 8565   3.605   0.767   5.797
 8566SI     SI1 8566   3.858   0.913   0.113
 8567SI     SI1 8567   3.858   0.913   0.423
 8568SI     SI1 8568   3.858   0.913   1.353
 8569SI     SI1 8569   3.858   0.913   1.663
 8570SI     SI1 8570   3.858   0.913   2.593
 8571SI     SI1 8571   3.858   0.913   2.903
 8572SI     SI1 8572   3.858   0.913   3.833
 8573SI     SI1 8573   3.858   0.913   4.143
 8574SI     SI1 8574   3.858   0.913   5.073
 8575SI     SI1 8575   3.858   0.913   5.383
 8576SI     SI1 8576   3.858   5.006   0.010
 8577SI     SI1 8577   3.605   5.152   0.527
 8578SI     SI1 8578   3.605   5.152   0.837
 8579SI     SI1 8579   3.858   5.006   1.250
 8580SI     SI1 8580   3.605   5.152   1.767
 8581SI     SI1 8581   3.605   5.152   2.077
 8582SI     SI1 8582   3.858   5.006   2.490
 8583SI     SI1 8583   3.605   5.152   3.007
 8584SI     SI1 8584   3.605   5.152   3.317
 8585SI     SI1 8585   3.858   5.006   3.730
 8586SI     SI1 8586   3.605   5.152   4.247
 8587SI     SI1 8587   3.605   5.152   4.557
 8588SI     SI1 8588   3.858   5.006   4.970
 8589SI     SI1 8589   3.605   5.152   5.487
 8590SI     SI1 8590   3.605   5.152   5.797
 8591SI     SI1 8591   3.858   5.299   0.113
 8592SI     SI1 8592   3.605   5.445   0.010
 8593SI     SI1 8593   3.858   5.299   0.423
 8594SI     SI1 8594   3.858   5.591   0.527
 8595SI     SI1 8595   3.858   5.591   0.837
 8596SI     SI1 8596   3.605   5.445   0.940
 8597SI     SI1 8597   3.858   5.299   1.353
 8598SI     SI1 8598   3.605   5.445   1.250
 8599SI     SI1 8599   3.858   5.299   1.663
 8600SI     SI1 8600   3.858   5.591   1.767
 8601SI     SI1 8601   3.858   5.591   2.077
 8602SI     SI1 8602   3.605   5.445   2.180
 8603SI     SI1 8603   3.858   5.299   2.593
 8604SI     SI1 8604   3.605   5.445   2.490
 8605SI     SI1 8605   3.858   5.299   2.903
 8606SI     SI1 8606   3.858   5.591   3.007
 8607SI     SI1 8607   3.858   5.591   3.317
 8608SI     SI1 8608   3.605   5.445   3.420
 8609SI     SI1 8609   3.858   5.299   3.833
 8610SI     SI1 8610   3.605   5.445   3.730
 8611SI     SI1 8611   3.858   5.299   4.143
 8612SI     SI1 8612   3.858   5.591   4.247
 8613SI     SI1 8613   3.858   5.591   4.557
 8614SI     SI1 8614   3.605   5.445   4.660
 8615SI     SI1 8615   3.858   5.299   5.073
 8616SI     SI1 8616   3.605   5.445   4.970
 8617SI     SI1 8617   3.858   5.299   5.383
 8618SI     SI1 8618   3.858   5.591   5.487
 8619SI     SI1 8619   3.858   5.591   5.797
 8620SI     SI1 8620   3.605   5.445   5.900
 8621SI     SI1 8621   3.858   5.883   0.010
 8622SI     SI1 8622   3.605   5.737   0.113
 8623SI     SI1 8623   3.605   5.737   0.423
 8624SI     SI1 8624   3.605   6.029   0.527
 8625SI     SI1 8625   3.858   5.883   0.940
 8626SI     SI1 8626   3.605   6.029   0.837
 8627SI     SI1 8627   3.858   5.883   1.250
 8628SI     SI1 8628   3.605   5.737   1.353
 8629SI     SI1 8629   3.605   5.737   1.663
 8630SI     SI1 8630   3.605   6.029   1.767
 8631SI     SI1 8631   3.858   5.883   2.180
 8632SI     SI1 8632   3.605   6.029   2.077
 8633SI     SI1 8633   3.858   5.883   2.490
 8634SI     SI1 8634   3.605   5.737   2.593
 8635SI     SI1 8635   3.605   5.737   2.903
 8636SI     SI1 8636   3.605   6.029   3.007
 8637SI     SI1 8637   3.858   5.883   3.420
 8638SI     SI1 8638   3.605   6.029   3.317
 8639SI     SI1 8639   3.858   5.883   3.730
 8640SI     SI1 8640   3.605   5.737   3.833
 8641SI     SI1 8641   3.605   5.737   4.143
 8642SI     SI1 8642   3.605   6.029   4.247
 8643SI     SI1 8643   3.858   5.883   4.660
 8644SI     SI1 8644   3.605   6.029   4.557
 8645SI     SI1 8645   3.858   5.883   4.970
 8646SI     SI1 8646   3.605   5.737   5.073
 8647SI     SI1 8647   3.605   5.737   5.383
 8648SI     SI1 8648   3.605   6.029   5.487
 8649SI     SI1 8649   3.858   5.883   5.900
 8650SI     SI1 8650   3.605   6.029   5.797
 8651SI     SI1 8651   4.364   0.036   0.113
 8652SI     SI1 8652   4.111   0.183   0.010
 8653SI     SI1 8653   4.364   0.036   0.423
 8654SI     SI1 8654   4.364   0.329   0.527
 8655SI     SI1 8655   4.364   0.329   0.837
 8656SI     SI1 8656   4.111   0.183   0.940
 8657SI     SI1 8657   4.364   0.036   1.353
 8658SI     SI1 8658   4.111   0.183   1.250
 8659SI     SI1 8659   4.364   0.036   1.663
 8660SI     SI1 8660   4.364   0.329   1.767
 8661SI     SI1 8661   4.364   0.329   2.077
 8662SI     SI1 8662   4.111   0.183   2.180
 8663SI     SI1 8663   4.364   0.036   2.593
 8664SI     SI1 8664   4.111   0.183   2.490
 8665SI     SI1 8665   4.364   0.036   2.903
 8666SI     SI1 8666   4.364   0.329   3.007
 8667SI     SI1 8667   4.364   0.329   3.317
 8668SI     SI1 8668   4.111   0.183   3.420
 8669SI     SI1 8669   4.364   0.036   3.833
 8670SI     SI1 8670   4.111   0.183   3.730
 8671SI     SI1 8671   4.364   0.036   4.143
 8672SI     SI1 8672   4.364   0.329   4.247
 8673SI     SI1 8673   4.364   0.329   4.557
 8674SI     SI1 8674   4.111   0.183   4.660
 8675SI     SI1 8675   4.364   0.036   5.073
 8676SI     SI1 8676   4.111   0.183   4.970
 8677SI     SI1 8677   4.364   0.036   5.383
 8678SI     SI1 8678   4.364   0.329   5.487
 8679SI     SI1 8679   4.364   0.329   5.797
 8680SI     SI1 8680   4.111   0.183   5.900
 8681SI     SI1 8681   4.364   0.621   0.010
 8682SI     SI1 8682   4.111   0.475   0.113
 8683SI     SI1 8683   4.111   0.475   0.423
 8684SI     SI1 8684   4.111   0.767   0.527
 8685SI     SI1 8685   4.364   0.621   0.940
 8686SI     SI1 8686   4.111   0.767   0.837
 8687SI     SI1 8687   4.364   0.621   1.250
 8688SI     SI1 8688   4.111   0.475   1.353
 8689SI     SI1 8689   4.111   0.475   1.663
 8690SI     SI1 8690   4.111   0.767   1.767
 8691SI     SI1 8691   4.364   0.621   2.180
 8692SI     SI1 8692   4.111   0.767   2.077
 8693SI     SI1 8693   4.364   0.621   2.490
 8694SI     SI1 8694   4.111   0.475   2.593
 8695SI     SI1 8695   4.111   0.475   2.903
 8696SI     SI1 8696   4.111   0.767   3.007
 8697SI     SI1 8697   4.364   0.621   3.420
 8698SI     SI1 8698   4.111   0.767   3.317
 8699SI     SI1 8699   4.364   0.621   3.730
 8700SI     SI1 8700   4.111   0.475   3.833
 8701SI     SI1 8701   4.111   0.475   4.143
 8702SI     SI1 8702   4.111   0.767   4.247
 8703SI     SI1 8703   4.364   0.621   4.660
 8704SI     SI1 8704   4.111   0.767   4.557
 8705SI     SI1 8705   4.364   0.621   4.970
 8706SI     SI1 8706   4.111   0.475   5.073
 8707SI     SI1 8707   4.111   0.475   5.383
 8708SI     SI1 8708   4.111   0.767   5.487
 8709SI     SI1 8709   4.364   0.621   5.900
 8710SI     SI1 8710   4.111   0.767   5.797
 8711SI     SI1 8711   4.364   0.913   0.113
 8712SI     SI1 8712   4.111   1.060   0.010
 8713SI     SI1 8713   4.364   0.913   0.423
 8714SI     SI1 8714   4.111   1.060   0.940
 8715SI     SI1 8715   4.364   0.913   1.353
 8716SI     SI1 8716   4.111   1.060   1.250
 8717SI     SI1 8717   4.364   0.913   1.663
 8718SI     SI1 8718   4.111   1.060   2.180
 8719SI     SI1 8719   4.364   0.913   2.593
 8720SI     SI1 8720   4.111   1.060   2.490
 8721SI     SI1 8721   4.364   0.913   2.903
 8722SI     SI1 8722   4.111   1.060   3.420
 8723SI     SI1 8723   4.364   0.913   3.833
 8724SI     SI1 8724   4.111   1.060   3.730
 8725SI     SI1 8725   4.364   0.913   4.143
 8726SI     SI1 8726   4.111   1.060   4.660
 8727SI     SI1 8727   4.364   0.913   5.073
 8728SI     SI1 8728   4.111   1.060   4.970
 8729SI     SI1 8729   4.364   0.913   5.383
 8730SI     SI1 8730   4.111   1.060   5.900
 8731SI     SI1 8731   4.364   1.206   0.527
 8732SI     SI1 8732   4.364   1.206   0.837
 8733SI     SI1 8733   4.364   1.206   1.767
 8734SI     SI1 8734   4.364   1.206   2.077
 8735SI     SI1 8735   4.364   1.206   3.007
 8736SI     SI1 8736   4.364   1.206   3.317
 8737SI     SI1 8737   4.364   1.206   4.247
 8738SI     SI1 8738   4.364   1.206   4.557
 8739SI     SI1 8739   4.364   1.206   5.487
 8740SI     SI1 8740   4.364   1.206   5.797
 8741SI     SI1 8741   4.364   4.714   0.527
 8742SI     SI1 8742   4.364   4.714   1.767
 8743SI     SI1 8743   4.364   4.714   3.007
 8744SI     SI1 8744   4.364   4.714   4.247
 8745SI     SI1 8745   4.364   4.714   5.487
 8746SI     SI1 8746   4.364   5.006   0.010
 8747SI     SI1 8747   4.111   5.152   0.527
 8748SI     SI1 8748   4.364   5.006   0.940
 8749SI     SI1 8749   4.111   5.152   0.837
 8750SI     SI1 8750   4.364   5.006   1.250
 8751SI     SI1 8751   4.111   5.152   1.767
 8752SI     SI1 8752   4.364   5.006   2.180
 8753SI     SI1 8753   4.111   5.152   2.077
 8754SI     SI1 8754   4.364   5.006   2.490
 8755SI     SI1 8755   4.111   5.152   3.007
 8756SI     SI1 8756   4.364   5.006   3.420
 8757SI     SI1 8757   4.111   5.152   3.317
 8758SI     SI1 8758   4.364   5.006   3.730
 8759SI     SI1 8759   4.111   5.152   4.247
 8760SI     SI1 8760   4.364   5.006   4.660
 8761SI     SI1 8761   4.111   5.152   4.557
 8762SI     SI1 8762   4.364   5.006   4.970
 8763SI     SI1 8763   4.111   5.152   5.487
 8764SI     SI1 8764   4.364   5.006   5.900
 8765SI     SI1 8765   4.111   5.152   5.797
 8766SI     SI1 8766   4.364   5.299   0.113
 8767SI     SI1 8767   4.111   5.445   0.010
 8768SI     SI1 8768   4.364   5.299   0.423
 8769SI     SI1 8769   4.364   5.591   0.527
 8770SI     SI1 8770   4.364   5.591   0.837
 8771SI     SI1 8771   4.111   5.445   0.940
 8772SI     SI1 8772   4.364   5.299   1.353
 8773SI     SI1 8773   4.111   5.445   1.250
 8774SI     SI1 8774   4.364   5.299   1.663
 8775SI     SI1 8775   4.364   5.591   1.767
 8776SI     SI1 8776   4.364   5.591   2.077
 8777SI     SI1 8777   4.111   5.445   2.180
 8778SI     SI1 8778   4.364   5.299   2.593
 8779SI     SI1 8779   4.111   5.445   2.490
 8780SI     SI1 8780   4.364   5.299   2.903
 8781SI     SI1 8781   4.364   5.591   3.007
 8782SI     SI1 8782   4.364   5.591   3.317
 8783SI     SI1 8783   4.111   5.445   3.420
 8784SI     SI1 8784   4.364   5.299   3.833
 8785SI     SI1 8785   4.111   5.445   3.730
 8786SI     SI1 8786   4.364   5.299   4.143
 8787SI     SI1 8787   4.364   5.591   4.247
 8788SI     SI1 8788   4.364   5.591   4.557
 8789SI     SI1 8789   4.111   5.445   4.660
 8790SI     SI1 8790   4.364   5.299   5.073
 8791SI     SI1 8791   4.111   5.445   4.970
 8792SI     SI1 8792   4.364   5.299   5.383
 8793SI     SI1 8793   4.364   5.591   5.487
 8794SI     SI1 8794   4.364   5.591   5.797
 8795SI     SI1 8795   4.111   5.445   5.900
 8796SI     SI1 8796   4.364   5.883   0.010
 8797SI     SI1 8797   4.111   5.737   0.113
 8798SI     SI1 8798   4.111   5.737   0.423
 8799SI     SI1 8799   4.111   6.029   0.527
 8800SI     SI1 8800   4.364   5.883   0.940
 8801SI     SI1 8801   4.111   6.029   0.837
 8802SI     SI1 8802   4.364   5.883   1.250
 8803SI     SI1 8803   4.111   5.737   1.353
 8804SI     SI1 8804   4.111   5.737   1.663
 8805SI     SI1 8805   4.111   6.029   1.767
 8806SI     SI1 8806   4.364   5.883   2.180
 8807SI     SI1 8807   4.111   6.029   2.077
 8808SI     SI1 8808   4.364   5.883   2.490
 8809SI     SI1 8809   4.111   5.737   2.593
 8810SI     SI1 8810   4.111   5.737   2.903
 8811SI     SI1 8811   4.111   6.029   3.007
 8812SI     SI1 8812   4.364   5.883   3.420
 8813SI     SI1 8813   4.111   6.029   3.317
 8814SI     SI1 8814   4.364   5.883   3.730
 8815SI     SI1 8815   4.111   5.737   3.833
 8816SI     SI1 8816   4.111   5.737   4.143
 8817SI     SI1 8817   4.111   6.029   4.247
 8818SI     SI1 8818   4.364   5.883   4.660
 8819SI     SI1 8819   4.111   6.029   4.557
 8820SI     SI1 8820   4.364   5.883   4.970
 8821SI     SI1 8821   4.111   5.737   5.073
 8822SI     SI1 8822   4.111   5.737   5.383
 8823SI     SI1 8823   4.111   6.029   5.487
 8824SI     SI1 8824   4.364   5.883   5.900
 8825SI     SI1 8825   4.111   6.029   5.797
 8826SI     SI1 8826   4.617   0.183   0.010
 8827SI     SI1 8827   4.617   0.183   0.940
 8828SI     SI1 8828   4.617   0.183   1.250
 8829SI     SI1 8829   4.617   0.183   2.180
 8830SI     SI1 8830   4.617   0.183   2.490
 8831SI     SI1 8831   4.617   0.183   3.420
 8832SI     SI1 8832   4.617   0.183   3.730
 8833SI     SI1 8833   4.617   0.183   4.660
 8834SI     SI1 8834   4.617   0.183   4.970
 8835SI     SI1 8835   4.617   0.183   5.900
 8836SI     SI1 8836   4.617   0.475   0.113
 8837SI     SI1 8837   4.617   0.475   0.423
 8838SI     SI1 8838   4.617   0.767   0.527
 8839SI     SI1 8839   4.617   0.767   0.837
 8840SI     SI1 8840   4.617   0.475   1.353
 8841SI     SI1 8841   4.617   0.475   1.663
 8842SI     SI1 8842   4.617   0.767   1.767
 8843SI     SI1 8843   4.617   0.767   2.077
 8844SI     SI1 8844   4.617   0.475   2.593
 8845SI     SI1 8845   4.617   0.475   2.903
 8846SI     SI1 8846   4.617   0.767   3.007
 8847SI     SI1 8847   4.617   0.767   3.317
 8848SI     SI1 8848   4.617   0.475   3.833
 8849SI     SI1 8849   4.617   0.475   4.143
 8850SI     SI1 8850   4.617   0.767   4.247
 8851SI     SI1 8851   4.617   0.767   4.557
 8852SI     SI1 8852   4.617   0.475   5.073
 8853SI     SI1 8853   4.617   0.475   5.383
 8854SI     SI1 8854   4.617   0.767   5.487
 8855SI     SI1 8855   4.617   0.767   5.797
 8856SI     SI1 8856   4.617   1.060   0.010
 8857SI     SI1 8857   4.617   1.060   0.940
 8858SI     SI1 8858   4.617   1.060   1.250
 8859SI     SI1 8859   4.617   1.060   2.180
 8860SI     SI1 8860   4.617   1.060   2.490
 8861SI     SI1 8861   4.617   1.060   3.420
 8862SI     SI1 8862   4.617   1.060   3.730
 8863SI     SI1 8863   4.617   1.060   4.660
 8864SI     SI1 8864   4.617   1.060   4.970
 8865SI     SI1 8865   4.617   1.060   5.900
 8866SI     SI1 8866   4.617   1.352   0.113
 8867SI     SI1 8867   4.617   1.352   0.423
 8868SI     SI1 8868   4.617   1.352   1.353
 8869SI     SI1 8869   4.617   1.352   1.663
 8870SI     SI1 8870   4.617   1.352   2.593
 8871SI     SI1 8871   4.617   1.352   2.903
 8872SI     SI1 8872   4.617   1.352   3.833
 8873SI     SI1 8873   4.617   1.352   4.143
 8874SI     SI1 8874   4.617   1.352   5.073
 8875SI     SI1 8875   4.617   1.352   5.383
 8876SI     SI1 8876   4.617   1.644   0.837
 8877SI     SI1 8877   4.617   1.644   2.077
 8878SI     SI1 8878   4.617   1.644   3.317
 8879SI     SI1 8879   4.617   1.644   4.557
 8880SI     SI1 8880   4.617   1.644   5.797
 8881SI     SI1 8881   4.617   4.568   0.010
 8882SI     SI1 8882   4.617   4.568   0.940
 8883SI     SI1 8883   4.617   4.568   1.250
 8884SI     SI1 8884   4.617   4.568   2.180
 8885SI     SI1 8885   4.617   4.568   2.490
 8886SI     SI1 8886   4.617   4.568   3.420
 8887SI     SI1 8887   4.617   4.568   3.730
 8888SI     SI1 8888   4.617   4.568   4.660
 8889SI     SI1 8889   4.617   4.568   4.970
 8890SI     SI1 8890   4.617   4.568   5.900
 8891SI     SI1 8891   4.617   4.860   0.113
 8892SI     SI1 8892   4.617   4.860   0.423
 8893SI     SI1 8893   4.617   5.152   0.527
 8894SI     SI1 8894   4.617   5.152   0.837
 8895SI     SI1 8895   4.617   4.860   1.353
 8896SI     SI1 8896   4.617   4.860   1.663
 8897SI     SI1 8897   4.617   5.152   1.767
 8898SI     SI1 8898   4.617   5.152   2.077
 8899SI     SI1 8899   4.617   4.860   2.593
 8900SI     SI1 8900   4.617   4.860   2.903
 8901SI     SI1 8901   4.617   5.152   3.007
 8902SI     SI1 8902   4.617   5.152   3.317
 8903SI     SI1 8903   4.617   4.860   3.833
 8904SI     SI1 8904   4.617   4.860   4.143
 8905SI     SI1 8905   4.617   5.152   4.247
 8906SI     SI1 8906   4.617   5.152   4.557
 8907SI     SI1 8907   4.617   4.860   5.073
 8908SI     SI1 8908   4.617   4.860   5.383
 8909SI     SI1 8909   4.617   5.152   5.487
 8910SI     SI1 8910   4.617   5.152   5.797
 8911SI     SI1 8911   4.617   5.445   0.010
 8912SI     SI1 8912   4.617   5.445   0.940
 8913SI     SI1 8913   4.617   5.445   1.250
 8914SI     SI1 8914   4.617   5.445   2.180
 8915SI     SI1 8915   4.617   5.445   2.490
 8916SI     SI1 8916   4.617   5.445   3.420
 8917SI     SI1 8917   4.617   5.445   3.730
 8918SI     SI1 8918   4.617   5.445   4.660
 8919SI     SI1 8919   4.617   5.445   4.970
 8920SI     SI1 8920   4.617   5.445   5.900
 8921SI     SI1 8921   4.617   5.737   0.113
 8922SI     SI1 8922   4.617   5.737   0.423
 8923SI     SI1 8923   4.617   6.029   0.527
 8924SI     SI1 8924   4.617   6.029   0.837
 8925SI     SI1 8925   4.617   5.737   1.353
 8926SI     SI1 8926   4.617   5.737   1.663
 8927SI     SI1 8927   4.617   6.029   1.767
 8928SI     SI1 8928   4.617   6.029   2.077
 8929SI     SI1 8929   4.617   5.737   2.593
 8930SI     SI1 8930   4.617   5.737   2.903
 8931SI     SI1 8931   4.617   6.029   3.007
 8932SI     SI1 8932   4.617   6.029   3.317
 8933SI     SI1 8933   4.617   5.737   3.833
 8934SI     SI1 8934   4.617   5.737   4.143
 8935SI     SI1 8935   4.617   6.029   4.247
 8936SI     SI1 8936   4.617   6.029   4.557
 8937SI     SI1 8937   4.617   5.737   5.073
 8938SI     SI1 8938   4.617   5.737   5.383
 8939SI     SI1 8939   4.617   6.029   5.487
 8940SI     SI1 8940   4.617   6.029   5.797
 8941SI     SI1 8941   4.870   0.036   0.113
 8942SI     SI1 8942   5.123   0.183   0.010
 8943SI     SI1 8943   4.870   0.036   0.423
 8944SI     SI1 8944   4.870   0.329   0.527
 8945SI     SI1 8945   4.870   0.329   0.837
 8946SI     SI1 8946   5.123   0.183   0.940
 8947SI     SI1 8947   4.870   0.036   1.353
 8948SI     SI1 8948   5.123   0.183   1.250
 8949SI     SI1 8949   4.870   0.036   1.663
 8950SI     SI1 8950   4.870   0.329   1.767
 8951SI     SI1 8951   4.870   0.329   2.077
 8952SI     SI1 8952   5.123   0.183   2.180
 8953SI     SI1 8953   4.870   0.036   2.593
 8954SI     SI1 8954   5.123   0.183   2.490
 8955SI     SI1 8955   4.870   0.036   2.903
 8956SI     SI1 8956   4.870   0.329   3.007
 8957SI     SI1 8957   4.870   0.329   3.317
 8958SI     SI1 8958   5.123   0.183   3.420
 8959SI     SI1 8959   4.870   0.036   3.833
 8960SI     SI1 8960   5.123   0.183   3.730
 8961SI     SI1 8961   4.870   0.036   4.143
 8962SI     SI1 8962   4.870   0.329   4.247
 8963SI     SI1 8963   4.870   0.329   4.557
 8964SI     SI1 8964   5.123   0.183   4.660
 8965SI     SI1 8965   4.870   0.036   5.073
 8966SI     SI1 8966   5.123   0.183   4.970
 8967SI     SI1 8967   4.870   0.036   5.383
 8968SI     SI1 8968   4.870   0.329   5.487
 8969SI     SI1 8969   4.870   0.329   5.797
 8970SI     SI1 8970   5.123   0.183   5.900
 8971SI     SI1 8971   4.870   0.621   0.010
 8972SI     SI1 8972   5.123   0.475   0.113
 8973SI     SI1 8973   5.123   0.475   0.423
 8974SI     SI1 8974   5.123   0.767   0.527
 8975SI     SI1 8975   4.870   0.621   0.940
 8976SI     SI1 8976   5.123   0.767   0.837
 8977SI     SI1 8977   4.870   0.621   1.250
 8978SI     SI1 8978   5.123   0.475   1.353
 8979SI     SI1 8979   5.123   0.475   1.663
 8980SI     SI1 8980   5.123   0.767   1.767
 8981SI     SI1 8981   4.870   0.621   2.180
 8982SI     SI1 8982   5.123   0.767   2.077
 8983SI     SI1 8983   4.870   0.621   2.490
 8984SI     SI1 8984   5.123   0.475   2.593
 8985SI     SI1 8985   5.123   0.475   2.903
 8986SI     SI1 8986   5.123   0.767   3.007
 8987SI     SI1 8987   4.870   0.621   3.420
 8988SI     SI1 8988   5.123   0.767   3.317
 8989SI     SI1 8989   4.870   0.621   3.730
 8990SI     SI1 8990   5.123   0.475   3.833
 8991SI     SI1 8991   5.123   0.475   4.143
 8992SI     SI1 8992   5.123   0.767   4.247
 8993SI     SI1 8993   4.870   0.621   4.660
 8994SI     SI1 8994   5.123   0.767   4.557
 8995SI     SI1 8995   4.870   0.621   4.970
 8996SI     SI1 8996   5.123   0.475   5.073
 8997SI     SI1 8997   5.123   0.475   5.383
 8998SI     SI1 8998   5.123   0.767   5.487
 8999SI     SI1 8999   4.870   0.621   5.900
 9000SI     SI1 9000   5.123   0.767   5.797
 9001SI     SI1 9001   4.870   0.913   0.113
 9002SI     SI1 9002   5.123   1.060   0.010
 9003SI     SI1 9003   4.870   0.913   0.423
 9004SI     SI1 9004   5.123   1.060   0.940
 9005SI     SI1 9005   4.870   0.913   1.353
 9006SI     SI1 9006   5.123   1.060   1.250
 9007SI     SI1 9007   4.870   0.913   1.663
 9008SI     SI1 9008   5.123   1.060   2.180
 9009SI     SI1 9009   4.870   0.913   2.593
 9010SI     SI1 9010   5.123   1.060   2.490
 9011SI     SI1 9011   4.870   0.913   2.903
 9012SI     SI1 9012   5.123   1.060   3.420
 9013SI     SI1 9013   4.870   0.913   3.833
 9014SI     SI1 9014   5.123   1.060   3.730
 9015SI     SI1 9015   4.870   0.913   4.143
 9016SI     SI1 9016   5.123   1.060   4.660
 9017SI     SI1 9017   4.870   0.913   5.073
 9018SI     SI1 9018   5.123   1.060   4.970
 9019SI     SI1 9019   4.870   0.913   5.383
 9020SI     SI1 9020   5.123   1.060   5.900
 9021SI     SI1 9021   4.870   1.498   0.010
 9022SI     SI1 9022   5.123   1.352   0.113
 9023SI     SI1 9023   4.870   1.206   0.527
 9024SI     SI1 9024   5.123   1.352   0.423
 9025SI     SI1 9025   4.870   1.498   0.940
 9026SI     SI1 9026   4.870   1.206   0.837
 9027SI     SI1 9027   4.870   1.498   1.250
 9028SI     SI1 9028   5.123   1.352   1.353
 9029SI     SI1 9029   4.870   1.206   1.767
 9030SI     SI1 9030   5.123   1.352   1.663
 9031SI     SI1 9031   4.870   1.498   2.180
 9032SI     SI1 9032   4.870   1.206   2.077
 9033SI     SI1 9033   4.870   1.498   2.490
 9034SI     SI1 9034   5.123   1.352   2.593
 9035SI     SI1 9035   4.870   1.206   3.007
 9036SI     SI1 9036   5.123   1.352   2.903
 9037SI     SI1 9037   4.870   1.498   3.420
 9038SI     SI1 9038   4.870   1.206   3.317
 9039SI     SI1 9039   4.870   1.498   3.730
 9040SI     SI1 9040   5.123   1.352   3.833
 9041SI     SI1 9041   4.870   1.206   4.247
 9042SI     SI1 9042   5.123   1.352   4.143
 9043SI     SI1 9043   4.870   1.498   4.660
 9044SI     SI1 9044   4.870   1.206   4.557
 9045SI     SI1 9045   4.870   1.498   4.970
 9046SI     SI1 9046   5.123   1.352   5.073
 9047SI     SI1 9047   4.870   1.206   5.487
 9048SI     SI1 9048   5.123   1.352   5.383
 9049SI     SI1 9049   4.870   1.498   5.900
 9050SI     SI1 9050   4.870   1.206   5.797
 9051SI     SI1 9051   4.870   1.791   0.113
 9052SI     SI1 9052   5.123   1.937   0.010
 9053SI     SI1 9053   5.123   1.644   0.527
 9054SI     SI1 9054   4.870   1.791   0.423
 9055SI     SI1 9055   5.123   1.644   0.837
 9056SI     SI1 9056   5.123   1.937   0.940
 9057SI     SI1 9057   4.870   1.791   1.353
 9058SI     SI1 9058   5.123   1.937   1.250
 9059SI     SI1 9059   5.123   1.644   1.767
 9060SI     SI1 9060   4.870   1.791   1.663
 9061SI     SI1 9061   5.123   1.644   2.077
 9062SI     SI1 9062   5.123   1.937   2.180
 9063SI     SI1 9063   4.870   1.791   2.593
 9064SI     SI1 9064   5.123   1.937   2.490
 9065SI     SI1 9065   5.123   1.644   3.007
 9066SI     SI1 9066   4.870   1.791   2.903
 9067SI     SI1 9067   5.123   1.644   3.317
 9068SI     SI1 9068   5.123   1.937   3.420
 9069SI     SI1 9069   4.870   1.791   3.833
 9070SI     SI1 9070   5.123   1.937   3.730
 9071SI     SI1 9071   5.123   1.644   4.247
 9072SI     SI1 9072   4.870   1.791   4.143
 9073SI     SI1 9073   5.123   1.644   4.557
 9074SI     SI1 9074   5.123   1.937   4.660
 9075SI     SI1 9075   4.870   1.791   5.073
 9076SI     SI1 9076   5.123   1.937   4.970
 9077SI     SI1 9077   5.123   1.644   5.487
 9078SI     SI1 9078   4.870   1.791   5.383
 9079SI     SI1 9079   5.123   1.644   5.797
 9080SI     SI1 9080   5.123   1.937   5.900
 9081SI     SI1 9081   5.123   2.229   0.113
 9082SI     SI1 9082   5.123   2.229   0.423
 9083SI     SI1 9083   4.870   2.083   0.837
 9084SI     SI1 9084   5.123   2.229   1.353
 9085SI     SI1 9085   5.123   2.229   1.663
 9086SI     SI1 9086   4.870   2.083   2.077
 9087SI     SI1 9087   5.123   2.229   2.593
 9088SI     SI1 9088   5.123   2.229   2.903
 9089SI     SI1 9089   4.870   2.083   3.317
 9090SI     SI1 9090   5.123   2.229   3.833
 9091SI     SI1 9091   5.123   2.229   4.143
 9092SI     SI1 9092   4.870   2.083   4.557
 9093SI     SI1 9093   5.123   2.229   5.073
 9094SI     SI1 9094   5.123   2.229   5.383
 9095SI     SI1 9095   4.870   2.083   5.797
 9096SI     SI1 9096   5.123   2.521   0.527
 9097SI     SI1 9097   5.123   2.521   0.837
 9098SI     SI1 9098   5.123   2.521   1.767
 9099SI     SI1 9099   5.123   2.521   2.077
 9100SI     SI1 9100   5.123   2.521   3.007
 9101SI     SI1 9101   5.123   2.521   3.317
 9102SI     SI1 9102   5.123   2.521   4.247
 9103SI     SI1 9103   5.123   2.521   4.557
 9104SI     SI1 9104   5.123   2.521   5.487
 9105SI     SI1 9105   5.123   2.521   5.797
 9106SI     SI1 9106   5.123   2.814   0.010
 9107SI     SI1 9107   5.123   2.814   1.250
 9108SI     SI1 9108   5.123   2.814   2.490
 9109SI     SI1 9109   5.123   2.814   3.730
 9110SI     SI1 9110   5.123   2.814   4.970
 9111SI     SI1 9111   5.123   3.398   0.527
 9112SI     SI1 9112   5.123   3.398   1.767
 9113SI     SI1 9113   5.123   3.398   3.007
 9114SI     SI1 9114   5.123   3.398   4.247
 9115SI     SI1 9115   5.123   3.398   5.487
 9116SI     SI1 9116   5.123   3.691   0.010
 9117SI     SI1 9117   5.123   3.983   0.113
 9118SI     SI1 9118   5.123   3.983   0.423
 9119SI     SI1 9119   5.123   3.691   0.940
 9120SI     SI1 9120   5.123   3.691   1.250
 9121SI     SI1 9121   5.123   3.983   1.353
 9122SI     SI1 9122   5.123   3.983   1.663
 9123SI     SI1 9123   5.123   3.691   2.180
 9124SI     SI1 9124   5.123   3.691   2.490
 9125SI     SI1 9125   5.123   3.983   2.593
 9126SI     SI1 9126   5.123   3.983   2.903
 9127SI     SI1 9127   5.123   3.691   3.420
 9128SI     SI1 9128   5.123   3.691   3.730
 9129SI     SI1 9129   5.123   3.983   3.833
 9130SI     SI1 9130   5.123   3.983   4.143
 9131SI     SI1 9131   5.123   3.691   4.660
 9132SI     SI1 9132   5.123   3.691   4.970
 9133SI     SI1 9133   5.123   3.983   5.073
 9134SI     SI1 9134   5.123   3.983   5.383
 9135SI     SI1 9135   5.123   3.691   5.900
 9136SI     SI1 9136   5.123   4.275   0.527
 9137SI     SI1 9137   4.870   4.129   0.940
 9138SI     SI1 9138   5.123   4.275   0.837
 9139SI     SI1 9139   5.123   4.275   1.767
 9140SI     SI1 9140   4.870   4.129   2.180
 9141SI     SI1 9141   5.123   4.275   2.077
 9142SI     SI1 9142   5.123   4.275   3.007
 9143SI     SI1 9143   4.870   4.129   3.420
 9144SI     SI1 9144   5.123   4.275   3.317
 9145SI     SI1 9145   5.123   4.275   4.247
 9146SI     SI1 9146   4.870   4.129   4.660
 9147SI     SI1 9147   5.123   4.275   4.557
 9148SI     SI1 9148   5.123   4.275   5.487
 9149SI     SI1 9149   4.870   4.129   5.900
 9150SI     SI1 9150   5.123   4.275   5.797
 9151SI     SI1 9151   4.870   4.422   0.113
 9152SI     SI1 9152   5.123   4.568   0.010
 9153SI     SI1 9153   4.870   4.422   0.423
 9154SI     SI1 9154   4.870   4.714   0.527
 9155SI     SI1 9155   4.870   4.714   0.837
 9156SI     SI1 9156   5.123   4.568   0.940
 9157SI     SI1 9157   4.870   4.422   1.353
 9158SI     SI1 9158   5.123   4.568   1.250
 9159SI     SI1 9159   4.870   4.422   1.663
 9160SI     SI1 9160   4.870   4.714   1.767
 9161SI     SI1 9161   4.870   4.714   2.077
 9162SI     SI1 9162   5.123   4.568   2.180
 9163SI     SI1 9163   4.870   4.422   2.593
 9164SI     SI1 9164   5.123   4.568   2.490
 9165SI     SI1 9165   4.870   4.422   2.903
 9166SI     SI1 9166   4.870   4.714   3.007
 9167SI     SI1 9167   4.870   4.714   3.317
 9168SI     SI1 9168   5.123   4.568   3.420
 9169SI     SI1 9169   4.870   4.422   3.833
 9170SI     SI1 9170   5.123   4.568   3.730
 9171SI     SI1 9171   4.870   4.422   4.143
 9172SI     SI1 9172   4.870   4.714   4.247
 9173SI     SI1 9173   4.870   4.714   4.557
 9174SI     SI1 9174   5.123   4.568   4.660
 9175SI     SI1 9175   4.870   4.422   5.073
 9176SI     SI1 9176   5.123   4.568   4.970
 9177SI     SI1 9177   4.870   4.422   5.383
 9178SI     SI1 9178   4.870   4.714   5.487
 9179SI     SI1 9179   4.870   4.714   5.797
 9180SI     SI1 9180   5.123   4.568   5.900
 9181SI     SI1 9181   4.870   5.006   0.010
 9182SI     SI1 9182   5.123   4.860   0.113
 9183SI     SI1 9183   5.123   4.860   0.423
 9184SI     SI1 9184   5.123   5.152   0.527
 9185SI     SI1 9185   4.870   5.006   0.940
 9186SI     SI1 9186   5.123   5.152   0.837
 9187SI     SI1 9187   4.870   5.006   1.250
 9188SI     SI1 9188   5.123   4.860   1.353
 9189SI     SI1 9189   5.123   4.860   1.663
 9190SI     SI1 9190   5.123   5.152   1.767
 9191SI     SI1 9191   4.870   5.006   2.180
 9192SI     SI1 9192   5.123   5.152   2.077
 9193SI     SI1 9193   4.870   5.006   2.490
 9194SI     SI1 9194   5.123   4.860   2.593
 9195SI     SI1 9195   5.123   4.860   2.903
 9196SI     SI1 9196   5.123   5.152   3.007
 9197SI     SI1 9197   4.870   5.006   3.420
 9198SI     SI1 9198   5.123   5.152   3.317
 9199SI     SI1 9199   4.870   5.006   3.730
 9200SI     SI1 9200   5.123   4.860   3.833
 9201SI     SI1 9201   5.123   4.860   4.143
 9202SI     SI1 9202   5.123   5.152   4.247
 9203SI     SI1 9203   4.870   5.006   4.660
 9204SI     SI1 9204   5.123   5.152   4.557
 9205SI     SI1 9205   4.870   5.006   4.970
 9206SI     SI1 9206   5.123   4.860   5.073
 9207SI     SI1 9207   5.123   4.860   5.383
 9208SI     SI1 9208   5.123   5.152   5.487
 9209SI     SI1 9209   4.870   5.006   5.900
 9210SI     SI1 9210   5.123   5.152   5.797
 9211SI     SI1 9211   4.870   5.299   0.113
 9212SI     SI1 9212   5.123   5.445   0.010
 9213SI     SI1 9213   4.870   5.299   0.423
 9214SI     SI1 9214   4.870   5.591   0.527
 9215SI     SI1 9215   4.870   5.591   0.837
 9216SI     SI1 9216   5.123   5.445   0.940
 9217SI     SI1 9217   4.870   5.299   1.353
 9218SI     SI1 9218   5.123   5.445   1.250
 9219SI     SI1 9219   4.870   5.299   1.663
 9220SI     SI1 9220   4.870   5.591   1.767
 9221SI     SI1 9221   4.870   5.591   2.077
 9222SI     SI1 9222   5.123   5.445   2.180
 9223SI     SI1 9223   4.870   5.299   2.593
 9224SI     SI1 9224   5.123   5.445   2.490
 9225SI     SI1 9225   4.870   5.299   2.903
 9226SI     SI1 9226   4.870   5.591   3.007
 9227SI     SI1 9227   4.870   5.591   3.317
 9228SI     SI1 9228   5.123   5.445   3.420
 9229SI     SI1 9229   4.870   5.299   3.833
 9230SI     SI1 9230   5.123   5.445   3.730
 9231SI     SI1 9231   4.870   5.299   4.143
 9232SI     SI1 9232   4.870   5.591   4.247
 9233SI     SI1 9233   4.870   5.591   4.557
 9234SI     SI1 9234   5.123   5.445   4.660
 9235SI     SI1 9235   4.870   5.299   5.073
 9236SI     SI1 9236   5.123   5.445   4.970
 9237SI     SI1 9237   4.870   5.299   5.383
 9238SI     SI1 9238   4.870   5.591   5.487
 9239SI     SI1 9239   4.870   5.591   5.797
 9240SI     SI1 9240   5.123   5.445   5.900
 9241SI     SI1 9241   4.870   5.883   0.010
 9242SI     SI1 9242   5.123   5.737   0.113
 9243SI     SI1 9243   5.123   5.737   0.423
 9244SI     SI1 9244   5.123   6.029   0.527
 9245SI     SI1 9245   4.870   5.883   0.940
 9246SI     SI1 9246   5.123   6.029   0.837
 9247SI     SI1 9247   4.870   5.883   1.250
 9248SI     SI1 9248   5.123   5.737   1.353
 9249SI     SI1 9249   5.123   5.737   1.663
 9250SI     SI1 9250   5.123   6.029   1.767
 9251SI     SI1 9251   4.870   5.883   2.180
 9252SI     SI1 9252   5.123   6.029   2.077
 9253SI     SI1 9253   4.870   5.883   2.490
 9254SI     SI1 9254   5.123   5.737   2.593
 9255SI     SI1 9255   5.123   5.737   2.903
 9256SI     SI1 9256   5.123   6.029   3.007
 9257SI     SI1 9257   4.870   5.883   3.420
 9258SI     SI1 9258   5.123   6.029   3.317
 9259SI     SI1 9259   4.870   5.883   3.730
 9260SI     SI1 9260   5.123   5.737   3.833
 9261SI     SI1 9261   5.123   5.737   4.143
 9262SI     SI1 9262   5.123   6.029   4.247
 9263SI     SI1 9263   4.870   5.883   4.660
 9264SI     SI1 9264   5.123   6.029   4.557
 9265SI     SI1 9265   4.870   5.883   4.970
 9266SI     SI1 9266   5.123   5.737   5.073
 9267SI     SI1 9267   5.123   5.737   5.383
 9268SI     SI1 9268   5.123   6.029   5.487
 9269SI     SI1 9269   4.870   5.883   5.900
 9270SI     SI1 9270   5.123   6.029   5.797
 9271SI     SI1 9271   5.376   0.036   0.113
 9272SI     SI1 9272   5.376   0.036   0.423
 9273SI     SI1 9273   5.376   0.329   0.527
 9274SI     SI1 9274   5.376   0.329   0.837
 9275SI     SI1 9275   5.376   0.036   1.353
 9276SI     SI1 9276   5.376   0.036   1.663
 9277SI     SI1 9277   5.376   0.329   1.767
 9278SI     SI1 9278   5.376   0.329   2.077
 9279SI     SI1 9279   5.376   0.036   2.593
 9280SI     SI1 9280   5.376   0.036   2.903
 9281SI     SI1 9281   5.376   0.329   3.007
 9282SI     SI1 9282   5.376   0.329   3.317
 9283SI     SI1 9283   5.376   0.036   3.833
 9284SI     SI1 9284   5.376   0.036   4.143
 9285SI     SI1 9285   5.376   0.329   4.247
 9286SI     SI1 9286   5.376   0.329   4.557
 9287SI     SI1 9287   5.376   0.036   5.073
 9288SI     SI1 9288   5.376   0.036   5.383
 9289SI     SI1 9289   5.376   0.329   5.487
 9290SI     SI1 9290   5.376   0.329   5.797
 9291SI     SI1 9291   5.376   0.621   0.010
 9292SI     SI1 9292   5.376   0.621   0.940
 9293SI     SI1 9293   5.376   0.621   1.250
 9294SI     SI1 9294   5.376   0.621   2.180
 9295SI     SI1 9295   5.376   0.621   2.490
 9296SI     SI1 9296   5.376   0.621   3.420
 9297SI     SI1 9297   5.376   0.621   3.730
 9298SI     SI1 9298   5.376   0.621   4.660
 9299SI     SI1 9299   5.376   0.621   4.970
 9300SI     SI1 9300   5.376   0.621   5.900
 9301SI     SI1 9301   5.376   0.913   0.113
 9302SI     SI1 9302   5.376   0.913   0.423
 9303SI     SI1 9303   5.376   0.913   1.353
 9304SI     SI1 9304   5.376   0.913   1.663
 9305SI     SI1 9305   5.376   0.913   2.593
 9306SI     SI1 9306   5.376   0.913   2.903
 9307SI     SI1 9307   5.376   0.913   3.833
 9308SI     SI1 9308   5.376   0.913   4.143
 9309SI     SI1 9309   5.376   0.913   5.073
 9310SI     SI1 9310   5.376   0.913   5.383
 9311SI     SI1 9311   5.376   1.498   0.010
 9312SI     SI1 9312   5.376   1.206   0.527
 9313SI     SI1 9313   5.376   1.498   0.940
 9314SI     SI1 9314   5.376   1.206   0.837
 9315SI     SI1 9315   5.376   1.498   1.250
 9316SI     SI1 9316   5.376   1.206   1.767
 9317SI     SI1 9317   5.376   1.498   2.180
 9318SI     SI1 9318   5.376   1.206   2.077
 9319SI     SI1 9319   5.376   1.498   2.490
 9320SI     SI1 9320   5.376   1.206   3.007
 9321SI     SI1 9321   5.376   1.498   3.420
 9322SI     SI1 9322   5.376   1.206   3.317
 9323SI     SI1 9323   5.376   1.498   3.730
 9324SI     SI1 9324   5.376   1.206   4.247
 9325SI     SI1 9325   5.376   1.498   4.660
 9326SI     SI1 9326   5.376   1.206   4.557
 9327SI     SI1 9327   5.376   1.498   4.970
 9328SI     SI1 9328   5.376   1.206   5.487
 9329SI     SI1 9329   5.376   1.498   5.900
 9330SI     SI1 9330   5.376   1.206   5.797
 9331SI     SI1 9331   5.376   1.791   0.113
 9332SI     SI1 9332   5.376   1.791   0.423
 9333SI     SI1 9333   5.376   1.791   1.353
 9334SI     SI1 9334   5.376   1.791   1.663
 9335SI     SI1 9335   5.376   1.791   2.593
 9336SI     SI1 9336   5.376   1.791   2.903
 9337SI     SI1 9337   5.376   1.791   3.833
 9338SI     SI1 9338   5.376   1.791   4.143
 9339SI     SI1 9339   5.376   1.791   5.073
 9340SI     SI1 9340   5.376   1.791   5.383
 9341SI     SI1 9341   5.376   2.375   0.010
 9342SI     SI1 9342   5.376   2.083   0.527
 9343SI     SI1 9343   5.376   2.375   0.940
 9344SI     SI1 9344   5.376   2.083   0.837
 9345SI     SI1 9345   5.376   2.375   1.250
 9346SI     SI1 9346   5.376   2.083   1.767
 9347SI     SI1 9347   5.376   2.375   2.180
 9348SI     SI1 9348   5.376   2.083   2.077
 9349SI     SI1 9349   5.376   2.375   2.490
 9350SI     SI1 9350   5.376   2.083   3.007
 9351SI     SI1 9351   5.376   2.375   3.420
 9352SI     SI1 9352   5.376   2.083   3.317
 9353SI     SI1 9353   5.376   2.375   3.730
 9354SI     SI1 9354   5.376   2.083   4.247
 9355SI     SI1 9355   5.376   2.375   4.660
 9356SI     SI1 9356   5.376   2.083   4.557
 9357SI     SI1 9357   5.376   2.375   4.970
 9358SI     SI1 9358   5.376   2.083   5.487
 9359SI     SI1 9359   5.376   2.375   5.900
 9360SI     SI1 9360   5.376   2.083   5.797
 9361SI     SI1 9361   5.376   2.668   0.113
 9362SI     SI1 9362   5.376   2.668   0.423
 9363SI     SI1 9363   5.376   2.668   1.353
 9364SI     SI1 9364   5.376   2.668   1.663
 9365SI     SI1 9365   5.376   2.668   2.593
 9366SI     SI1 9366   5.376   2.668   2.903
 9367SI     SI1 9367   5.376   2.668   3.833
 9368SI     SI1 9368   5.376   2.668   4.143
 9369SI     SI1 9369   5.376   2.668   5.073
 9370SI     SI1 9370   5.376   2.668   5.383
 9371SI     SI1 9371   5.376   2.960   0.527
 9372SI     SI1 9372   5.376   2.960   0.837
 9373SI     SI1 9373   5.376   2.960   1.767
 9374SI     SI1 9374   5.376   2.960   2.077
 9375SI     SI1 9375   5.376   2.960   3.007
 9376SI     SI1 9376   5.376   2.960   3.317
 9377SI     SI1 9377   5.376   2.960   4.247
 9378SI     SI1 9378   5.376   2.960   4.557
 9379SI     SI1 9379   5.376   2.960   5.487
 9380SI     SI1 9380   5.376   2.960   5.797
 9381SI     SI1 9381   5.376   3.252   0.010
 9382SI     SI1 9382   5.376   3.545   0.113
 9383SI     SI1 9383   5.376   3.545   0.423
 9384SI     SI1 9384   5.376   3.252   0.940
 9385SI     SI1 9385   5.376   3.252   1.250
 9386SI     SI1 9386   5.376   3.545   1.353
 9387SI     SI1 9387   5.376   3.545   1.663
 9388SI     SI1 9388   5.376   3.252   2.180
 9389SI     SI1 9389   5.376   3.252   2.490
 9390SI     SI1 9390   5.376   3.545   2.593
 9391SI     SI1 9391   5.376   3.545   2.903
 9392SI     SI1 9392   5.376   3.252   3.420
 9393SI     SI1 9393   5.376   3.252   3.730
 9394SI     SI1 9394   5.376   3.545   3.833
 9395SI     SI1 9395   5.376   3.545   4.143
 9396SI     SI1 9396   5.376   3.252   4.660
 9397SI     SI1 9397   5.376   3.252   4.970
 9398SI     SI1 9398   5.376   3.545   5.073
 9399SI     SI1 9399   5.376   3.545   5.383
 9400SI     SI1 9400   5.376   3.252   5.900
 9401SI     SI1 9401   5.376   3.837   0.527
 9402SI     SI1 9402   5.376   3.837   0.837
 9403SI     SI1 9403   5.376   3.837   1.767
 9404SI     SI1 9404   5.376   3.837   2.077
 9405SI     SI1 9405   5.376   3.837   3.007
 9406SI     SI1 9406   5.376   3.837   3.317
 9407SI     SI1 9407   5.376   3.837   4.247
 9408SI     SI1 9408   5.376   3.837   4.557
 9409SI     SI1 9409   5.376   3.837   5.487
 9410SI     SI1 9410   5.376   3.837   5.797
 9411SI     SI1 9411   5.376   4.129   0.010
 9412SI     SI1 9412   5.376   4.129   0.940
 9413SI     SI1 9413   5.376   4.129   1.250
 9414SI     SI1 9414   5.376   4.129   2.180
 9415SI     SI1 9415   5.376   4.129   2.490
 9416SI     SI1 9416   5.376   4.129   3.420
 9417SI     SI1 9417   5.376   4.129   3.730
 9418SI     SI1 9418   5.376   4.129   4.660
 9419SI     SI1 9419   5.376   4.129   4.970
 9420SI     SI1 9420   5.376   4.129   5.900
 9421SI     SI1 9421   5.376   4.422   0.113
 9422SI     SI1 9422   5.376   4.422   0.423
 9423SI     SI1 9423   5.376   4.714   0.527
 9424SI     SI1 9424   5.376   4.714   0.837
 9425SI     SI1 9425   5.376   4.422   1.353
 9426SI     SI1 9426   5.376   4.422   1.663
 9427SI     SI1 9427   5.376   4.714   1.767
 9428SI     SI1 9428   5.376   4.714   2.077
 9429SI     SI1 9429   5.376   4.422   2.593
 9430SI     SI1 9430   5.376   4.422   2.903
 9431SI     SI1 9431   5.376   4.714   3.007
 9432SI     SI1 9432   5.376   4.714   3.317
 9433SI     SI1 9433   5.376   4.422   3.833
 9434SI     SI1 9434   5.376   4.422   4.143
 9435SI     SI1 9435   5.376   4.714   4.247
 9436SI     SI1 9436   5.376   4.714   4.557
 9437SI     SI1 9437   5.376   4.422   5.073
 9438SI     SI1 9438   5.376   4.422   5.383
 9439SI     SI1 9439   5.376   4.714   5.487
 9440SI     SI1 9440   5.376   4.714   5.797
 9441SI     SI1 9441   5.376   5.006   0.010
 9442SI     SI1 9442   5.376   5.006   0.940
 9443SI     SI1 9443   5.376   5.006   1.250
 9444SI     SI1 9444   5.376   5.006   2.180
 9445SI     SI1 9445   5.376   5.006   2.490
 9446SI     SI1 9446   5.376   5.006   3.420
 9447SI     SI1 9447   5.376   5.006   3.730
 9448SI     SI1 9448   5.376   5.006   4.660
 9449SI     SI1 9449   5.376   5.006   4.970
 9450SI     SI1 9450   5.376   5.006   5.900
 9451SI     SI1 9451   5.376   5.299   0.113
 9452SI     SI1 9452   5.376   5.299   0.423
 9453SI     SI1 9453   5.376   5.591   0.527
 9454SI     SI1 9454   5.376   5.591   0.837
 9455SI     SI1 9455   5.376   5.299   1.353
 9456SI     SI1 9456   5.376   5.299   1.663
 9457SI     SI1 9457   5.376   5.591   1.767
 9458SI     SI1 9458   5.376   5.591   2.077
 9459SI     SI1 9459   5.376   5.299   2.593
 9460SI     SI1 9460   5.376   5.299   2.903
 9461SI     SI1 9461   5.376   5.591   3.007
 9462SI     SI1 9462   5.376   5.591   3.317
 9463SI     SI1 9463   5.376   5.299   3.833
 9464SI     SI1 9464   5.376   5.299   4.143
 9465SI     SI1 9465   5.376   5.591   4.247
 9466SI     SI1 9466   5.376   5.591   4.557
 9467SI     SI1 9467   5.376   5.299   5.073
 9468SI     SI1 9468   5.376   5.299   5.383
 9469SI     SI1 9469   5.376   5.591   5.487
 9470SI     SI1 9470   5.376   5.591   5.797
 9471SI     SI1 9471   5.376   5.883   0.010
 9472SI     SI1 9472   5.376   5.883   0.940
 9473SI     SI1 9473   5.376   5.883   1.250
 9474SI     SI1 9474   5.376   5.883   2.180
 9475SI     SI1 9475   5.376   5.883   2.490
 9476SI     SI1 9476   5.376   5.883   3.420
 9477SI     SI1 9477   5.376   5.883   3.730
 9478SI     SI1 9478   5.376   5.883   4.660
 9479SI     SI1 9479   5.376   5.883   4.970
 9480SI     SI1 9480   5.376   5.883   5.900
 9481SI     SI1 9481   5.882   0.036   0.113
 9482SI     SI1 9482   5.629   0.183   0.010
 9483SI     SI1 9483   5.882   0.036   0.423
 9484SI     SI1 9484   5.882   0.329   0.527
 9485SI     SI1 9485   5.882   0.329   0.837
 9486SI     SI1 9486   5.629   0.183   0.940
 9487SI     SI1 9487   5.882   0.036   1.353
 9488SI     SI1 9488   5.629   0.183   1.250
 9489SI     SI1 9489   5.882   0.036   1.663
 9490SI     SI1 9490   5.882   0.329   1.767
 9491SI     SI1 9491   5.882   0.329   2.077
 9492SI     SI1 9492   5.629   0.183   2.180
 9493SI     SI1 9493   5.882   0.036   2.593
 9494SI     SI1 9494   5.629   0.183   2.490
 9495SI     SI1 9495   5.882   0.036   2.903
 9496SI     SI1 9496   5.882   0.329   3.007
 9497SI     SI1 9497   5.882   0.329   3.317
 9498SI     SI1 9498   5.629   0.183   3.420
 9499SI     SI1 9499   5.882   0.036   3.833
 9500SI     SI1 9500   5.629   0.183   3.730
 9501SI     SI1 9501   5.882   0.036   4.143
 9502SI     SI1 9502   5.882   0.329   4.247
 9503SI     SI1 9503   5.882   0.329   4.557
 9504SI     SI1 9504   5.629   0.183   4.660
 9505SI     SI1 9505   5.882   0.036   5.073
 9506SI     SI1 9506   5.629   0.183   4.970
 9507SI     SI1 9507   5.882   0.036   5.383
 9508SI     SI1 9508   5.882   0.329   5.487
 9509SI     SI1 9509   5.882   0.329   5.797
 9510SI     SI1 9510   5.629   0.183   5.900
 9511SI     SI1 9511   5.882   0.621   0.010
 9512SI     SI1 9512   5.629   0.475   0.113
 9513SI     SI1 9513   5.629   0.475   0.423
 9514SI     SI1 9514   5.629   0.767   0.527
 9515SI     SI1 9515   5.882   0.621   0.940
 9516SI     SI1 9516   5.629   0.767   0.837
 9517SI     SI1 9517   5.882   0.621   1.250
 9518SI     SI1 9518   5.629   0.475   1.353
 9519SI     SI1 9519   5.629   0.475   1.663
 9520SI     SI1 9520   5.629   0.767   1.767
 9521SI     SI1 9521   5.882   0.621   2.180
 9522SI     SI1 9522   5.629   0.767   2.077
 9523SI     SI1 9523   5.882   0.621   2.490
 9524SI     SI1 9524   5.629   0.475   2.593
 9525SI     SI1 9525   5.629   0.475   2.903
 9526SI     SI1 9526   5.629   0.767   3.007
 9527SI     SI1 9527   5.882   0.621   3.420
 9528SI     SI1 9528   5.629   0.767   3.317
 9529SI     SI1 9529   5.882   0.621   3.730
 9530SI     SI1 9530   5.629   0.475   3.833
 9531SI     SI1 9531   5.629   0.475   4.143
 9532SI     SI1 9532   5.629   0.767   4.247
 9533SI     SI1 9533   5.882   0.621   4.660
 9534SI     SI1 9534   5.629   0.767   4.557
 9535SI     SI1 9535   5.882   0.621   4.970
 9536SI     SI1 9536   5.629   0.475   5.073
 9537SI     SI1 9537   5.629   0.475   5.383
 9538SI     SI1 9538   5.629   0.767   5.487
 9539SI     SI1 9539   5.882   0.621   5.900
 9540SI     SI1 9540   5.629   0.767   5.797
 9541SI     SI1 9541   5.882   0.913   0.113
 9542SI     SI1 9542   5.629   1.060   0.010
 9543SI     SI1 9543   5.882   0.913   0.423
 9544SI     SI1 9544   5.629   1.060   0.940
 9545SI     SI1 9545   5.882   0.913   1.353
 9546SI     SI1 9546   5.629   1.060   1.250
 9547SI     SI1 9547   5.882   0.913   1.663
 9548SI     SI1 9548   5.629   1.060   2.180
 9549SI     SI1 9549   5.882   0.913   2.593
 9550SI     SI1 9550   5.629   1.060   2.490
 9551SI     SI1 9551   5.882   0.913   2.903
 9552SI     SI1 9552   5.629   1.060   3.420
 9553SI     SI1 9553   5.882   0.913   3.833
 9554SI     SI1 9554   5.629   1.060   3.730
 9555SI     SI1 9555   5.882   0.913   4.143
 9556SI     SI1 9556   5.629   1.060   4.660
 9557SI     SI1 9557   5.882   0.913   5.073
 9558SI     SI1 9558   5.629   1.060   4.970
 9559SI     SI1 9559   5.882   0.913   5.383
 9560SI     SI1 9560   5.629   1.060   5.900
 9561SI     SI1 9561   5.882   1.498   0.010
 9562SI     SI1 9562   5.629   1.352   0.113
 9563SI     SI1 9563   5.882   1.206   0.527
 9564SI     SI1 9564   5.629   1.352   0.423
 9565SI     SI1 9565   5.882   1.498   0.940
 9566SI     SI1 9566   5.882   1.206   0.837
 9567SI     SI1 9567   5.882   1.498   1.250
 9568SI     SI1 9568   5.629   1.352   1.353
 9569SI     SI1 9569   5.882   1.206   1.767
 9570SI     SI1 9570   5.629   1.352   1.663
 9571SI     SI1 9571   5.882   1.498   2.180
 9572SI     SI1 9572   5.882   1.206   2.077
 9573SI     SI1 9573   5.882   1.498   2.490
 9574SI     SI1 9574   5.629   1.352   2.593
 9575SI     SI1 9575   5.882   1.206   3.007
 9576SI     SI1 9576   5.629   1.352   2.903
 9577SI     SI1 9577   5.882   1.498   3.420
 9578SI     SI1 9578   5.882   1.206   3.317
 9579SI     SI1 9579   5.882   1.498   3.730
 9580SI     SI1 9580   5.629   1.352   3.833
 9581SI     SI1 9581   5.882   1.206   4.247
 9582SI     SI1 9582   5.629   1.352   4.143
 9583SI     SI1 9583   5.882   1.498   4.660
 9584SI     SI1 9584   5.882   1.206   4.557
 9585SI     SI1 9585   5.882   1.498   4.970
 9586SI     SI1 9586   5.629   1.352   5.073
 9587SI     SI1 9587   5.882   1.206   5.487
 9588SI     SI1 9588   5.629   1.352   5.383
 9589SI     SI1 9589   5.882   1.498   5.900
 9590SI     SI1 9590   5.882   1.206   5.797
 9591SI     SI1 9591   5.882   1.791   0.113
 9592SI     SI1 9592   5.629   1.937   0.010
 9593SI     SI1 9593   5.629   1.644   0.527
 9594SI     SI1 9594   5.882   1.791   0.423
 9595SI     SI1 9595   5.629   1.644   0.837
 9596SI     SI1 9596   5.629   1.937   0.940
 9597SI     SI1 9597   5.882   1.791   1.353
 9598SI     SI1 9598   5.629   1.937   1.250
 9599SI     SI1 9599   5.629   1.644   1.767
 9600SI     SI1 9600   5.882   1.791   1.663
 9601SI     SI1 9601   5.629   1.644   2.077
 9602SI     SI1 9602   5.629   1.937   2.180
 9603SI     SI1 9603   5.882   1.791   2.593
 9604SI     SI1 9604   5.629   1.937   2.490
 9605SI     SI1 9605   5.629   1.644   3.007
 9606SI     SI1 9606   5.882   1.791   2.903
 9607SI     SI1 9607   5.629   1.644   3.317
 9608SI     SI1 9608   5.629   1.937   3.420
 9609SI     SI1 9609   5.882   1.791   3.833
 9610SI     SI1 9610   5.629   1.937   3.730
 9611SI     SI1 9611   5.629   1.644   4.247
 9612SI     SI1 9612   5.882   1.791   4.143
 9613SI     SI1 9613   5.629   1.644   4.557
 9614SI     SI1 9614   5.629   1.937   4.660
 9615SI     SI1 9615   5.882   1.791   5.073
 9616SI     SI1 9616   5.629   1.937   4.970
 9617SI     SI1 9617   5.629   1.644   5.487
 9618SI     SI1 9618   5.882   1.791   5.383
 9619SI     SI1 9619   5.629   1.644   5.797
 9620SI     SI1 9620   5.629   1.937   5.900
 9621SI     SI1 9621   5.882   2.375   0.010
 9622SI     SI1 9622   5.629   2.229   0.113
 9623SI     SI1 9623   5.882   2.083   0.527
 9624SI     SI1 9624   5.629   2.229   0.423
 9625SI     SI1 9625   5.882   2.375   0.940
 9626SI     SI1 9626   5.882   2.083   0.837
 9627SI     SI1 9627   5.882   2.375   1.250
 9628SI     SI1 9628   5.629   2.229   1.353
 9629SI     SI1 9629   5.882   2.083   1.767
 9630SI     SI1 9630   5.629   2.229   1.663
 9631SI     SI1 9631   5.882   2.375   2.180
 9632SI     SI1 9632   5.882   2.083   2.077
 9633SI     SI1 9633   5.882   2.375   2.490
 9634SI     SI1 9634   5.629   2.229   2.593
 9635SI     SI1 9635   5.882   2.083   3.007
 9636SI     SI1 9636   5.629   2.229   2.903
 9637SI     SI1 9637   5.882   2.375   3.420
 9638SI     SI1 9638   5.882   2.083   3.317
 9639SI     SI1 9639   5.882   2.375   3.730
 9640SI     SI1 9640   5.629   2.229   3.833
 9641SI     SI1 9641   5.882   2.083   4.247
 9642SI     SI1 9642   5.629   2.229   4.143
 9643SI     SI1 9643   5.882   2.375   4.660
 9644SI     SI1 9644   5.882   2.083   4.557
 9645SI     SI1 9645   5.882   2.375   4.970
 9646SI     SI1 9646   5.629   2.229   5.073
 9647SI     SI1 9647   5.882   2.083   5.487
 9648SI     SI1 9648   5.629   2.229   5.383
 9649SI     SI1 9649   5.882   2.375   5.900
 9650SI     SI1 9650   5.882   2.083   5.797
 9651SI     SI1 9651   5.882   2.668   0.113
 9652SI     SI1 9652   5.629   2.521   0.527
 9653SI     SI1 9653   5.882   2.668   0.423
 9654SI     SI1 9654   5.629   2.521   0.837
 9655SI     SI1 9655   5.882   2.668   1.353
 9656SI     SI1 9656   5.629   2.521   1.767
 9657SI     SI1 9657   5.882   2.668   1.663
 9658SI     SI1 9658   5.629   2.521   2.077
 9659SI     SI1 9659   5.882   2.668   2.593
 9660SI     SI1 9660   5.629   2.521   3.007
 9661SI     SI1 9661   5.882   2.668   2.903
 9662SI     SI1 9662   5.629   2.521   3.317
 9663SI     SI1 9663   5.882   2.668   3.833
 9664SI     SI1 9664   5.629   2.521   4.247
 9665SI     SI1 9665   5.882   2.668   4.143
 9666SI     SI1 9666   5.629   2.521   4.557
 9667SI     SI1 9667   5.882   2.668   5.073
 9668SI     SI1 9668   5.629   2.521   5.487
 9669SI     SI1 9669   5.882   2.668   5.383
 9670SI     SI1 9670   5.629   2.521   5.797
 9671SI     SI1 9671   5.629   2.814   0.010
 9672SI     SI1 9672   5.629   3.106   0.113
 9673SI     SI1 9673   5.882   2.960   0.527
 9674SI     SI1 9674   5.629   3.106   0.423
 9675SI     SI1 9675   5.882   2.960   0.837
 9676SI     SI1 9676   5.629   2.814   0.940
 9677SI     SI1 9677   5.629   2.814   1.250
 9678SI     SI1 9678   5.629   3.106   1.353
 9679SI     SI1 9679   5.882   2.960   1.767
 9680SI     SI1 9680   5.629   3.106   1.663
 9681SI     SI1 9681   5.882   2.960   2.077
 9682SI     SI1 9682   5.629   2.814   2.180
 9683SI     SI1 9683   5.629   2.814   2.490
 9684SI     SI1 9684   5.629   3.106   2.593
 9685SI     SI1 9685   5.882   2.960   3.007
 9686SI     SI1 9686   5.629   3.106   2.903
 9687SI     SI1 9687   5.882   2.960   3.317
 9688SI     SI1 9688   5.629   2.814   3.420
 9689SI     SI1 9689   5.629   2.814   3.730
 9690SI     SI1 9690   5.629   3.106   3.833
 9691SI     SI1 9691   5.882   2.960   4.247
 9692SI     SI1 9692   5.629   3.106   4.143
 9693SI     SI1 9693   5.882   2.960   4.557
 9694SI     SI1 9694   5.629   2.814   4.660
 9695SI     SI1 9695   5.629   2.814   4.970
 9696SI     SI1 9696   5.629   3.106   5.073
 9697SI     SI1 9697   5.882   2.960   5.487
 9698SI     SI1 9698   5.629   3.106   5.383
 9699SI     SI1 9699   5.882   2.960   5.797
 9700SI     SI1 9700   5.629   2.814   5.900
 9701SI     SI1 9701   5.882   3.252   0.010
 9702SI     SI1 9702   5.882   3.545   0.113
 9703SI     SI1 9703   5.629   3.398   0.527
 9704SI     SI1 9704   5.882   3.545   0.423
 9705SI     SI1 9705   5.882   3.252   0.940
 9706SI     SI1 9706   5.629   3.398   0.837
 9707SI     SI1 9707   5.882   3.252   1.250
 9708SI     SI1 9708   5.882   3.545   1.353
 9709SI     SI1 9709   5.629   3.398   1.767
 9710SI     SI1 9710   5.882   3.545   1.663
 9711SI     SI1 9711   5.882   3.252   2.180
 9712SI     SI1 9712   5.629   3.398   2.077
 9713SI     SI1 9713   5.882   3.252   2.490
 9714SI     SI1 9714   5.882   3.545   2.593
 9715SI     SI1 9715   5.629   3.398   3.007
 9716SI     SI1 9716   5.882   3.545   2.903
 9717SI     SI1 9717   5.882   3.252   3.420
 9718SI     SI1 9718   5.629   3.398   3.317
 9719SI     SI1 9719   5.882   3.252   3.730
 9720SI     SI1 9720   5.882   3.545   3.833
 9721SI     SI1 9721   5.629   3.398   4.247
 9722SI     SI1 9722   5.882   3.545   4.143
 9723SI     SI1 9723   5.882   3.252   4.660
 9724SI     SI1 9724   5.629   3.398   4.557
 9725SI     SI1 9725   5.882   3.252   4.970
 9726SI     SI1 9726   5.882   3.545   5.073
 9727SI     SI1 9727   5.629   3.398   5.487
 9728SI     SI1 9728   5.882   3.545   5.383
 9729SI     SI1 9729   5.882   3.252   5.900
 9730SI     SI1 9730   5.629   3.398   5.797
 9731SI     SI1 9731   5.629   3.691   0.010
 9732SI     SI1 9732   5.629   3.983   0.113
 9733SI     SI1 9733   5.882   3.837   0.527
 9734SI     SI1 9734   5.629   3.983   0.423
 9735SI     SI1 9735   5.882   3.837   0.837
 9736SI     SI1 9736   5.629   3.691   0.940
 9737SI     SI1 9737   5.629   3.691   1.250
 9738SI     SI1 9738   5.629   3.983   1.353
 9739SI     SI1 9739   5.882   3.837   1.767
 9740SI     SI1 9740   5.629   3.983   1.663
 9741SI     SI1 9741   5.882   3.837   2.077
 9742SI     SI1 9742   5.629   3.691   2.180
 9743SI     SI1 9743   5.629   3.691   2.490
 9744SI     SI1 9744   5.629   3.983   2.593
 9745SI     SI1 9745   5.882   3.837   3.007
 9746SI     SI1 9746   5.629   3.983   2.903
 9747SI     SI1 9747   5.882   3.837   3.317
 9748SI     SI1 9748   5.629   3.691   3.420
 9749SI     SI1 9749   5.629   3.691   3.730
 9750SI     SI1 9750   5.629   3.983   3.833
 9751SI     SI1 9751   5.882   3.837   4.247
 9752SI     SI1 9752   5.629   3.983   4.143
 9753SI     SI1 9753   5.882   3.837   4.557
 9754SI     SI1 9754   5.629   3.691   4.660
 9755SI     SI1 9755   5.629   3.691   4.970
 9756SI     SI1 9756   5.629   3.983   5.073
 9757SI     SI1 9757   5.882   3.837   5.487
 9758SI     SI1 9758   5.629   3.983   5.383
 9759SI     SI1 9759   5.882   3.837   5.797
 9760SI     SI1 9760   5.629   3.691   5.900
 9761SI     SI1 9761   5.882   4.129   0.010
 9762SI     SI1 9762   5.629   4.275   0.527
 9763SI     SI1 9763   5.882   4.129   0.940
 9764SI     SI1 9764   5.629   4.275   0.837
 9765SI     SI1 9765   5.882   4.129   1.250
 9766SI     SI1 9766   5.629   4.275   1.767
 9767SI     SI1 9767   5.882   4.129   2.180
 9768SI     SI1 9768   5.629   4.275   2.077
 9769SI     SI1 9769   5.882   4.129   2.490
 9770SI     SI1 9770   5.629   4.275   3.007
 9771SI     SI1 9771   5.882   4.129   3.420
 9772SI     SI1 9772   5.629   4.275   3.317
 9773SI     SI1 9773   5.882   4.129   3.730
 9774SI     SI1 9774   5.629   4.275   4.247
 9775SI     SI1 9775   5.882   4.129   4.660
 9776SI     SI1 9776   5.629   4.275   4.557
 9777SI     SI1 9777   5.882   4.129   4.970
 9778SI     SI1 9778   5.629   4.275   5.487
 9779SI     SI1 9779   5.882   4.129   5.900
 9780SI     SI1 9780   5.629   4.275   5.797
 9781SI     SI1 9781   5.882   4.422   0.113
 9782SI     SI1 9782   5.629   4.568   0.010
 9783SI     SI1 9783   5.882   4.422   0.423
 9784SI     SI1 9784   5.882   4.714   0.527
 9785SI     SI1 9785   5.882   4.714   0.837
 9786SI     SI1 9786   5.629   4.568   0.940
 9787SI     SI1 9787   5.882   4.422   1.353
 9788SI     SI1 9788   5.629   4.568   1.250
 9789SI     SI1 9789   5.882   4.422   1.663
 9790SI     SI1 9790   5.882   4.714   1.767
 9791SI     SI1 9791   5.882   4.714   2.077
 9792SI     SI1 9792   5.629   4.568   2.180
 9793SI     SI1 9793   5.882   4.422   2.593
 9794SI     SI1 9794   5.629   4.568   2.490
 9795SI     SI1 9795   5.882   4.422   2.903
 9796SI     SI1 9796   5.882   4.714   3.007
 9797SI     SI1 9797   5.882   4.714   3.317
 9798SI     SI1 9798   5.629   4.568   3.420
 9799SI     SI1 9799   5.882   4.422   3.833
 9800SI     SI1 9800   5.629   4.568   3.730
 9801SI     SI1 9801   5.882   4.422   4.143
 9802SI     SI1 9802   5.882   4.714   4.247
 9803SI     SI1 9803   5.882   4.714   4.557
 9804SI     SI1 9804   5.629   4.568   4.660
 9805SI     SI1 9805   5.882   4.422   5.073
 9806SI     SI1 9806   5.629   4.568   4.970
 9807SI     SI1 9807   5.882   4.422   5.383
 9808SI     SI1 9808   5.882   4.714   5.487
 9809SI     SI1 9809   5.882   4.714   5.797
 9810SI     SI1 9810   5.629   4.568   5.900
 9811SI     SI1 9811   5.882   5.006   0.010
 9812SI     SI1 9812   5.629   4.860   0.113
 9813SI     SI1 9813   5.629   4.860   0.423
 9814SI     SI1 9814   5.629   5.152   0.527
 9815SI     SI1 9815   5.882   5.006   0.940
 9816SI     SI1 9816   5.629   5.152   0.837
 9817SI     SI1 9817   5.882   5.006   1.250
 9818SI     SI1 9818   5.629   4.860   1.353
 9819SI     SI1 9819   5.629   4.860   1.663
 9820SI     SI1 9820   5.629   5.152   1.767
 9821SI     SI1 9821   5.882   5.006   2.180
 9822SI     SI1 9822   5.629   5.152   2.077
 9823SI     SI1 9823   5.882   5.006   2.490
 9824SI     SI1 9824   5.629   4.860   2.593
 9825SI     SI1 9825   5.629   4.860   2.903
 9826SI     SI1 9826   5.629   5.152   3.007
 9827SI     SI1 9827   5.882   5.006   3.420
 9828SI     SI1 9828   5.629   5.152   3.317
 9829SI     SI1 9829   5.882   5.006   3.730
 9830SI     SI1 9830   5.629   4.860   3.833
 9831SI     SI1 9831   5.629   4.860   4.143
 9832SI     SI1 9832   5.629   5.152   4.247
 9833SI     SI1 9833   5.882   5.006   4.660
 9834SI     SI1 9834   5.629   5.152   4.557
 9835SI     SI1 9835   5.882   5.006   4.970
 9836SI     SI1 9836   5.629   4.860   5.073
 9837SI     SI1 9837   5.629   4.860   5.383
 9838SI     SI1 9838   5.629   5.152   5.487
 9839SI     SI1 9839   5.882   5.006   5.900
 9840SI     SI1 9840   5.629   5.152   5.797
 9841SI     SI1 9841   5.882   5.299   0.113
 9842SI     SI1 9842   5.629   5.445   0.010
 9843SI     SI1 9843   5.882   5.299   0.423
 9844SI     SI1 9844   5.882   5.591   0.527
 9845SI     SI1 9845   5.882   5.591   0.837
 9846SI     SI1 9846   5.629   5.445   0.940
 9847SI     SI1 9847   5.882   5.299   1.353
 9848SI     SI1 9848   5.629   5.445   1.250
 9849SI     SI1 9849   5.882   5.299   1.663
 9850SI     SI1 9850   5.882   5.591   1.767
 9851SI     SI1 9851   5.882   5.591   2.077
 9852SI     SI1 9852   5.629   5.445   2.180
 9853SI     SI1 9853   5.882   5.299   2.593
 9854SI     SI1 9854   5.629   5.445   2.490
 9855SI     SI1 9855   5.882   5.299   2.903
 9856SI     SI1 9856   5.882   5.591   3.007
 9857SI     SI1 9857   5.882   5.591   3.317
 9858SI     SI1 9858   5.629   5.445   3.420
 9859SI     SI1 9859   5.882   5.299   3.833
 9860SI     SI1 9860   5.629   5.445   3.730
 9861SI     SI1 9861   5.882   5.299   4.143
 9862SI     SI1 9862   5.882   5.591   4.247
 9863SI     SI1 9863   5.882   5.591   4.557
 9864SI     SI1 9864   5.629   5.445   4.660
 9865SI     SI1 9865   5.882   5.299   5.073
 9866SI     SI1 9866   5.629   5.445   4.970
 9867SI     SI1 9867   5.882   5.299   5.383
 9868SI     SI1 9868   5.882   5.591   5.487
 9869SI     SI1 9869   5.882   5.591   5.797
 9870SI     SI1 9870   5.629   5.445   5.900
 9871SI     SI1 9871   5.882   5.883   0.010
 9872SI     SI1 9872   5.629   5.737   0.113
 9873SI     SI1 9873   5.629   5.737   0.423
 9874SI     SI1 9874   5.629   6.029   0.527
 9875SI     SI1 9875   5.882   5.883   0.940
 9876SI     SI1 9876   5.629   6.029   0.837
 9877SI     SI1 9877   5.882   5.883   1.250
 9878SI     SI1 9878   5.629   5.737   1.353
 9879SI     SI1 9879   5.629   5.737   1.663
 9880SI     SI1 9880   5.629   6.029   1.767
 9881SI     SI1 9881   5.882   5.883   2.180
 9882SI     SI1 9882   5.629   6.029   2.077
 9883SI     SI1 9883   5.882   5.883   2.490
 9884SI     SI1 9884   5.629   5.737   2.593
 9885SI     SI1 9885   5.629   5.737   2.903
 9886SI     SI1 9886   5.629   6.029   3.007
 9887SI     SI1 9887   5.882   5.883   3.420
 9888SI     SI1 9888   5.629   6.029   3.317
 9889SI     SI1 9889   5.882   5.883   3.730
 9890SI     SI1 9890   5.629   5.737   3.833
 9891SI     SI1 9891   5.629   5.737   4.143
 9892SI     SI1 9892   5.629   6.029   4.247
 9893SI     SI1 9893   5.882   5.883   4.660
 9894SI     SI1 9894   5.629   6.029   4.557
 9895SI     SI1 9895   5.882   5.883   4.970
 9896SI     SI1 9896   5.629   5.737   5.073
 9897SI     SI1 9897   5.629   5.737   5.383
 9898SI     SI1 9898   5.629   6.029   5.487
 9899SI     SI1 9899   5.882   5.883   5.900
 9900SI     SI1 9900   5.629   6.029   5.797
 9901SL     Si1 9901   1.075   2.229   0.113
 9901SL      O1 9902   1.226   2.293   0.113
 9901SL      H1 9903   1.316   2.332   0.113
 9902SL     Si1 9904   1.075   2.229   1.353
 9902SL      O1 9905   1.226   2.293   1.353
 9902SL      H1 9906   1.316   2.332   1.353
 9903SL     Si1 9907   1.075   2.229   2.593
 9903SL      O1 9908   1.226   2.293   2.593
 9903SL      H1 9909   1.316   2.332   2.593
 9904SL     Si1 9910   1.075   2.229   3.833
 9904SL      O1 9911   1.226   2.293   3.833
 9904SL      H1 9912   1.316   2.332   3.833
 9905SL     Si1 9913   1.075   2.229   5.073
 9905SL      O1 9914   1.226   2.293   5.073
 9905SL      H1 9915   1.316   2.332   5.073
 9906SL     Si1 9916   1.075   2.521   0.527
 9906SL      O1 9917   1.233   2.565   0.527
 9906SL      H1 9918   1.328   2.591   0.527
 9907SL     Si1 9919   1.075   2.521   0.837
 9907SL      O1 9920   1.233   2.565   0.837
 9907SL      H1 9921   1.328   2.591   0.837
 9908SL     Si1 9922   1.075   2.521   1.767
 9908SL      O1 9923   1.233   2.565   1.767
 9908SL      H1 9924   1.328   2.591   1.767
 9909SL     Si1 9925   1.075   2.521   2.077
 9909SL      O1 9926   1.233   2.565   2.077
 9909SL      H1 9927   1.328   2.591   2.077
 9910SL     Si1 9928   1.075   2.521   3.007
 9910SL      O1 9929   1.233   2.565   3.007
 9910SL      H1 9930   1.328   2.591   3.007
 9911SL     Si1 9931   1.075   2.521   3.317
 9911SL      O1 9932   1.233   2.565   3.317
 9911SL      H1 9933   1.328   2.591   3.317
 9912SL     Si1 9934   1.075   2.521   4.247
 9912SL      O1 9935   1.233   2.565   4.247
 9912SL      H1 9936   1.328   2.591   4.247
 9913SL     Si1 9937   1.075   2.521   4.557
 9913SL      O1 9938   1.233   2.565   4.557
 9913SL      H1 9939   1.328   2.591   4.557
 9914SL     Si1 9940   1.075   2.521   5.487
 9914SL      O1 9941   1.233   2.565   5.487
 9914SL      H1 9942   1.328   2.591   5.487
 9915SL     Si1 9943   1.075   2.521   5.797
 9915SL      O1 9944   1.233   2.565   5.797
 9915SL      H1 9945   1.328   2.591   5.797
 9916SL     Si1 9946   1.075   2.814   0.010
 9916SL      O1 9947   1.238   2.834   0.010
 9916SL      H1 9948   1.335   2.846   0.010
 9917SL     Si1 9949   1.075   3.106   0.113
 9917SL      O1 9950   1.239   3.102   0.113
 9917SL      H1 9951   1.337   3.099   0.113
 9918SL     Si1 9952   1.075   3.106   0.423
 9918SL      O1 9953   1.239   3.102   0.423
 9918SL      H1 9954   1.337   3.099   0.423
 9919SL     Si1 9955   1.075   2.814   0.940
 9919SL      O1 9956   1.238   2.834   0.940
 9919SL      H1 9957   1.335   2.846   0.940
 9920SL     Si1 9958   1.075   2.814   1.250
 9920SL      O1 9959   1.238   2.834   1.250
 9920SL      H1 9960   1.335   2.846   1.250
 9921SL     Si1 9961   1.075   3.106   1.353
 9921SL      O1 9962   1.239   3.102   1.353
 9921SL      H1 9963   1.337   3.099   1.353
 9922SL     Si1 9964   1.075   3.106   1.663
 9922SL      O1 9965   1.239   3.102   1.663
 9922SL      H1 9966   1.337   3.099   1.663
 9923SL     Si1 9967   1.075   2.814   2.180
 9923SL      O1 9968   1.238   2.834   2.180
 9923SL      H1 9969   1.335   2.846   2.180
 9924SL     Si1 9970   1.075   2.814   2.490
 9924SL      O1 9971   1.238   2.834   2.490
 9924SL      H1 9972   1.335   2.846   2.490
 9925SL     Si1 9973   1.075   3.106   2.593
 9925SL      O1 9974   1.239   3.102   2.593
 9925SL      H1 9975   1.337   3.099   2.593
 9926SL     Si1 9976   1.075   3.106   2.903
 9926SL      O1 9977   1.239   3.102   2.903
 9926SL      H1 9978   1.337   3.099   2.903
 9927SL     Si1 9979   1.075   2.814   3.420
 9927SL      O1 9980   1.238   2.834   3.420
 9927SL      H1 9981   1.335   2.846   3.420
 9928SL     Si1 9982   1.075   2.814   3.730
 9928SL      O1 9983   1.238   2.834   3.730
 9928SL      H1 9984   1.335   2.846   3.730
 9929SL     Si1 9985   1.075   3.106   3.833
 9929SL      O1 9986   1.239   3.102   3.833
 9929SL      H1 9987   1.337   3.099   3.833
 9930SL     Si1 9988   1.075   3.106   4.143
 9930SL      O1 9989   1.239   3.102   4.143
 9930SL      H1 9990   1.337   3.099   4.143
 9931SL     Si1 9991   1.075   2.814   4.660
 9931SL      O1 9992   1.238   2.834   4.660
 9931SL      H1 9993   1.335   2.846   4.660
 9932SL     Si1 9994   1.075   2.814   4.970
 9932SL      O1 9995   1.238   2.834   4.970
 9932SL      H1 9996   1.335   2.846   4.970
 9933SL     Si1 9997   1.075   3.106   5.073
 9933SL      O1 9998   1.239   3.102   5.073
 9933SL      H1 9999   1.337   3.099   5.073
 9934SL     Si110000   1.075   3.106   5.383
 9934SL      O110001   1.239   3.102   5.383
 9934SL      H110002   1.337   3.099   5.383
 9935SL     Si110003   1.075   2.814   5.900
 9935SL      O110004   1.238   2.834   5.900
 9935SL      H110005   1.335   2.846   5.900
 9936SL     Si110006   1.075   3.398   0.527
 9936SL      O110007   1.237   3.370   0.527
 9936SL      H110008   1.333   3.353   0.527
 9937SL     Si110009   1.075   3.398   0.837
 9937SL      O110010   1.237   3.370   0.837
 9937SL      H110011   1.333   3.353   0.837
 9938SL     Si110012   1.075   3.398   1.767
 9938SL      O110013   1.237   3.370   1.767
 9938SL      H110014   1.333   3.353   1.767
 9939SL     Si110015   1.075   3.398   2.077
 9939SL      O110016   1.237   3.370   2.077
 9939SL      H110017   1.333   3.353   2.077
 9940SL     Si110018   1.075   3.398   3.007
 9940SL      O110019   1.237   3.370   3.007
 9940SL      H110020   1.333   3.353   3.007
 9941SL     Si110021   1.075   3.398   3.317
 9941SL      O110022   1.237   3.370   3.317
 9941SL      H110023   1.333   3.353   3.317
 9942SL     Si110024   1.075   3.398   4.247
 9942SL      O110025   1.237   3.370   4.247
 9942SL      H110026   1.333   3.353   4.247
 9943SL     Si110027   1.075   3.398   4.557
 9943SL      O110028   1.237   3.370   4.557
 9943SL      H110029   1.333   3.353   4.557
 9944SL     Si110030   1.075   3.398   5.487
 9944SL      O110031   1.237   3.370   5.487
 9944SL      H110032   1.333   3.353   5.487
 9945SL     Si110033   1.075   3.398   5.797
 9945SL      O110034   1.237   3.370   5.797
 9945SL      H110035   1.333   3.353   5.797
 9946SL     Si110036   1.075   3.691   0.010
 9946SL      O110037   1.231   3.640   0.010
 9946SL      H110038   1.324   3.609   0.010
 9947SL     Si110039   1.075   3.983   0.423
 9947SL      O110040   1.223   3.912   0.423
 9947SL      H110041   1.311   3.870   0.423
 9948SL     Si110042   1.075   3.691   0.940
 9948SL      O110043   1.231   3.640   0.940
 9948SL      H110044   1.324   3.609   0.940
 9949SL     Si110045   1.075   3.691   1.250
 9949SL      O110046   1.231   3.640   1.250
 9949SL      H110047   1.324   3.609   1.250
 9950SL     Si110048   1.075   3.983   1.663
 9950SL      O110049   1.223   3.912   1.663
 9950SL      H110050   1.311   3.870   1.663
 9951SL     Si110051   1.075   3.691   2.180
 9951SL      O110052   1.231   3.640   2.180
 9951SL      H110053   1.324   3.609   2.180
 9952SL     Si110054   1.075   3.691   2.490
 9952SL      O110055   1.231   3.640   2.490
 9952SL      H110056   1.324   3.609   2.490
 9953SL     Si110057   1.075   3.983   2.903
 9953SL      O110058   1.223   3.912   2.903
 9953SL      H110059   1.311   3.870   2.903
 9954SL     Si110060   1.075   3.691   3.420
 9954SL      O110061   1.231   3.640   3.420
 9954SL      H110062   1.324   3.609   3.420
 9955SL     Si110063   1.075   3.691   3.730
 9955SL      O110064   1.231   3.640   3.730
 9955SL      H110065   1.324   3.609   3.730
 9956SL     Si110066   1.075   3.983   4.143
 9956SL      O110067   1.223   3.912   4.143
 9956SL      H110068   1.311   3.870   4.143
 9957SL     Si110069   1.075   3.691   4.660
 9957SL      O110070   1.231   3.640   4.660
 9957SL      H110071   1.324   3.609   4.660
 9958SL     Si110072   1.075   3.691   4.970
 9958SL      O110073   1.231   3.640   4.970
 9958SL      H110074   1.324   3.609   4.970
 9959SL     Si110075   1.075   3.983   5.383
 9959SL      O110076   1.223   3.912   5.383
 9959SL      H110077   1.311   3.870   5.383
 9960SL     Si110078   1.075   3.691   5.900
 9960SL      O110079   1.231   3.640   5.900
 9960SL      H110080   1.324   3.609   5.900
 9961SL     Si110081   1.328   1.791   0.113
 9961SL      O110082   1.459   1.889   0.113
 9961SL      H110083   1.538   1.948   0.113
 9962SL     Si110084   1.581   1.644   0.527
 9962SL      O110085   1.698   1.759   0.527
 9962SL      H110086   1.768   1.828   0.527
 9963SL     Si110087   1.581   1.644   0.837
 9963SL      O110088   1.698   1.759   0.837
 9963SL      H110089   1.768   1.828   0.837
 9964SL     Si110090   1.328   1.791   1.353
 9964SL      O110091   1.459   1.889   1.353
 9964SL      H110092   1.538   1.948   1.353
 9965SL     Si110093   1.581   1.644   1.767
 9965SL      O110094   1.698   1.759   1.767
 9965SL      H110095   1.768   1.828   1.767
 9966SL     Si110096   1.581   1.644   2.077
 9966SL      O110097   1.698   1.759   2.077
 9966SL      H110098   1.768   1.828   2.077
 9967SL     Si110099   1.328   1.791   2.593
 9967SL      O110100   1.459   1.889   2.593
 9967SL      H110101   1.538   1.948   2.593
 9968SL     Si110102   1.581   1.644   3.007
 9968SL      O110103   1.698   1.759   3.007
 9968SL      H110104   1.768   1.828   3.007
 9969SL     Si110105   1.581   1.644   3.317
 9969SL      O110106   1.698   1.759   3.317
 9969SL      H110107   1.768   1.828   3.317
 9970SL     Si110108   1.328   1.791   3.833
 9970SL      O110109   1.459   1.889   3.833
 9970SL      H110110   1.538   1.948   3.833
 9971SL     Si110111   1.581   1.644   4.247
 9971SL      O110112   1.698   1.759   4.247
 9971SL      H110113   1.768   1.828   4.247
 9972SL     Si110114   1.581   1.644   4.557
 9972SL      O110115   1.698   1.759   4.557
 9972SL      H110116   1.768   1.828   4.557
 9973SL     Si110117   1.328   1.791   5.073
 9973SL      O110118   1.459   1.889   5.073
 9973SL      H110119   1.538   1.948   5.073
 9974SL     Si110120   1.581   1.644   5.487
 9974SL      O110121   1.698   1.759   5.487
 9974SL      H110122   1.768   1.828   5.487
 9975SL     Si110123   1.581   1.644   5.797
 9975SL      O110124   1.698   1.759   5.797
 9975SL      H110125   1.768   1.828   5.797
 9976SL     Si110126   1.328   2.083   0.527
 9976SL      O110127   1.470   2.165   0.527
 9976SL      H110128   1.555   2.214   0.527
 9977SL     Si110129   1.328   2.083   1.767
 9977SL      O110130   1.470   2.165   1.767
 9977SL      H110131   1.555   2.214   1.767
 9978SL     Si110132   1.328   2.083   3.007
 9978SL      O110133   1.470   2.165   3.007
 9978SL      H110134   1.555   2.214   3.007
 9979SL     Si110135   1.328   2.083   4.247
 9979SL      O110136   1.470   2.165   4.247
 9979SL      H110137   1.555   2.214   4.247
 9980SL     Si110138   1.328   2.083   5.487
 9980SL      O110139   1.470   2.165   5.487
 9980SL      H110140   1.555   2.214   5.487
 9981SL     Si110141   1.328   4.129   0.010
 9981SL      O110142   1.467   4.041   0.010
 9981SL      H110143   1.549   3.989   0.010
 9982SL     Si110144   1.328   4.129   1.250
 9982SL      O110145   1.467   4.041   1.250
 9982SL      H110146   1.549   3.989   1.250
 9983SL     Si110147   1.328   4.129   2.490
 9983SL      O110148   1.467   4.041   2.490
 9983SL      H110149   1.549   3.989   2.490
 9984SL     Si110150   1.328   4.129   3.730
 9984SL      O110151   1.467   4.041   3.730
 9984SL      H110152   1.549   3.989   3.730
 9985SL     Si110153   1.328   4.129   4.970
 9985SL      O110154   1.467   4.041   4.970
 9985SL      H110155   1.549   3.989   4.970
 9986SL     Si110156   1.328   4.422   0.423
 9986SL      O110157   1.456   4.318   0.423
 9986SL      H110158   1.532   4.257   0.423
 9987SL     Si110159   1.581   4.568   0.940
 9987SL      O110160   1.694   4.449   0.940
 9987SL      H110161   1.761   4.378   0.940
 9988SL     Si110162   1.328   4.422   1.663
 9988SL      O110163   1.456   4.318   1.663
 9988SL      H110164   1.532   4.257   1.663
 9989SL     Si110165   1.581   4.568   2.180
 9989SL      O110166   1.694   4.449   2.180
 9989SL      H110167   1.761   4.378   2.180
 9990SL     Si110168   1.328   4.422   2.903
 9990SL      O110169   1.456   4.318   2.903
 9990SL      H110170   1.532   4.257   2.903
 9991SL     Si110171   1.581   4.568   3.420
 9991SL      O110172   1.694   4.449   3.420
 9991SL      H110173   1.761   4.378   3.420
 9992SL     Si110174   1.328   4.422   4.143
 9992SL      O110175   1.456   4.318   4.143
 9992SL      H110176   1.532   4.257   4.143
 9993SL     Si110177   1.581   4.568   4.660
 9993SL      O110178   1.694   4.449   4.660
 9993SL      H110179   1.761   4.378   4.660
 9994SL     Si110180   1.328   4.422   5.383
 9994SL      O110181   1.456   4.318   5.383
 9994SL      H110182   1.532   4.257   5.383
 9995SL     Si110183   1.581   4.568   5.900
 9995SL      O110184   1.694   4.449   5.900
 9995SL      H110185   1.761   4.378   5.900
 9996SL     Si110186   1.581   4.568   0.010
 9996SL      O110187   1.694   4.449   0.010
 9996SL      H110188   1.761   4.378   0.010
 9997SL     Si110189   1.581   4.568   1.250
 9997SL      O110190   1.694   4.449   1.250
 9997SL      H110191   1.761   4.378   1.250
 9998SL     Si110192   1.581   4.568   2.490
 9998SL      O110193   1.694   4.449   2.490
 9998SL      H110194   1.761   4.378   2.490
 9999SL     Si110195   1.581   4.568   3.730
 9999SL      O110196   1.694   4.449   3.730
 9999SL      H110197   1.761   4.378   3.730
10000SL     Si110198   1.581   4.568   4.970
10000SL      O110199   1.694   4.449   4.970
10000SL      H110200   1.761   4.378   4.970
10001SL     Si110201   1.834   1.498   0.010
10001SL      O110202   1.933   1.629   0.010
10001SL      H110203   1.992   1.707   0.010
10002SL     Si110204   1.834   1.498   0.940
10002SL      O110205   1.933   1.629   0.940
10002SL      H110206   1.992   1.707   0.940
10003SL     Si110207   1.834   1.498   1.250
10003SL      O110208   1.933   1.629   1.250
10003SL      H110209   1.992   1.707   1.250
10004SL     Si110210   1.834   1.498   2.180
10004SL      O110211   1.933   1.629   2.180
10004SL      H110212   1.992   1.707   2.180
10005SL     Si110213   1.834   1.498   2.490
10005SL      O110214   1.933   1.629   2.490
10005SL      H110215   1.992   1.707   2.490
10006SL     Si110216   1.834   1.498   3.420
10006SL      O110217   1.933   1.629   3.420
10006SL      H110218   1.992   1.707   3.420
10007SL     Si110219   1.834   1.498   3.730
10007SL      O110220   1.933   1.629   3.730
10007SL      H110221   1.992   1.707   3.730
10008SL     Si110222   1.834   1.498   4.660
10008SL      O110223   1.933   1.629   4.660
10008SL      H110224   1.992   1.707   4.660
10009SL     Si110225   1.834   1.498   4.970
10009SL      O110226   1.933   1.629   4.970
10009SL      H110227   1.992   1.707   4.970
10010SL     Si110228   1.834   1.498   5.900
10010SL      O110229   1.933   1.629   5.900
10010SL      H110230   1.992   1.707   5.900
10011SL     Si110231   1.834   4.714   0.527
10011SL      O110232   1.929   4.580   0.527
10011SL      H110233   1.986   4.500   0.527
10012SL     Si110234   1.834   4.714   0.837
10012SL      O110235   1.929   4.580   0.837
10012SL      H110236   1.986   4.500   0.837
10013SL     Si110237   1.834   4.714   1.767
10013SL      O110238   1.929   4.580   1.767
10013SL      H110239   1.986   4.500   1.767
10014SL     Si110240   1.834   4.714   2.077
10014SL      O110241   1.929   4.580   2.077
10014SL      H110242   1.986   4.500   2.077
10015SL     Si110243   1.834   4.714   3.007
10015SL      O110244   1.929   4.580   3.007
10015SL      H110245   1.986   4.500   3.007
10016SL     Si110246   1.834   4.714   3.317
10016SL      O110247   1.929   4.580   3.317
10016SL      H110248   1.986   4.500   3.317
10017SL     Si110249   1.834   4.714   4.247
10017SL      O110250   1.929   4.580   4.247
10017SL      H110251   1.986   4.500   4.247
10018SL     Si110252   1.834   4.714   4.557
10018SL      O110253   1.929   4.580   4.557
10018SL      H110254   1.986   4.500   4.557
10019SL     Si110255   1.834   4.714   5.487
10019SL      O110256   1.929   4.580   5.487
10019SL      H110257   1.986   4.500   5.487
10020SL     Si110258   1.834   4.714   5.797
10020SL      O110259   1.929   4.580   5.797
10020SL      H110260   1.986   4.500   5.797
10021SL     Si110261   2.087   1.352   0.113
10021SL      O110262   2.165   1.496   0.113
10021SL      H110263   2.212   1.582   0.113
10022SL     Si110264   2.340   1.206   0.527
10022SL      O110265   2.396   1.360   0.527
10022SL      H110266   2.430   1.452   0.527
10023SL     Si110267   2.087   1.352   0.423
10023SL      O110268   2.165   1.496   0.423
10023SL      H110269   2.212   1.582   0.423
10024SL     Si110270   2.340   1.206   0.837
10024SL      O110271   2.396   1.360   0.837
10024SL      H110272   2.430   1.452   0.837
10025SL     Si110273   2.087   1.352   1.353
10025SL      O110274   2.165   1.496   1.353
10025SL      H110275   2.212   1.582   1.353
10026SL     Si110276   2.340   1.206   1.767
10026SL      O110277   2.396   1.360   1.767
10026SL      H110278   2.430   1.452   1.767
10027SL     Si110279   2.087   1.352   1.663
10027SL      O110280   2.165   1.496   1.663
10027SL      H110281   2.212   1.582   1.663
10028SL     Si110282   2.340   1.206   2.077
10028SL      O110283   2.396   1.360   2.077
10028SL      H110284   2.430   1.452   2.077
10029SL     Si110285   2.087   1.352   2.593
10029SL      O110286   2.165   1.496   2.593
10029SL      H110287   2.212   1.582   2.593
10030SL     Si110288   2.340   1.206   3.007
10030SL      O110289   2.396   1.360   3.007
10030SL      H110290   2.430   1.452   3.007
10031SL     Si110291   2.087   1.352   2.903
10031SL      O110292   2.165   1.496   2.903
10031SL      H110293   2.212   1.582   2.903
10032SL     Si110294   2.340   1.206   3.317
10032SL      O110295   2.396   1.360   3.317
10032SL      H110296   2.430   1.452   3.317
10033SL     Si110297   2.087   1.352   3.833
10033SL      O110298   2.165   1.496   3.833
10033SL      H110299   2.212   1.582   3.833
10034SL     Si110300   2.340   1.206   4.247
10034SL      O110301   2.396   1.360   4.247
10034SL      H110302   2.430   1.452   4.247
10035SL     Si110303   2.087   1.352   4.143
10035SL      O110304   2.165   1.496   4.143
10035SL      H110305   2.212   1.582   4.143
10036SL     Si110306   2.340   1.206   4.557
10036SL      O110307   2.396   1.360   4.557
10036SL      H110308   2.430   1.452   4.557
10037SL     Si110309   2.087   1.352   5.073
10037SL      O110310   2.165   1.496   5.073
10037SL      H110311   2.212   1.582   5.073
10038SL     Si110312   2.340   1.206   5.487
10038SL      O110313   2.396   1.360   5.487
10038SL      H110314   2.430   1.452   5.487
10039SL     Si110315   2.087   1.352   5.383
10039SL      O110316   2.165   1.496   5.383
10039SL      H110317   2.212   1.582   5.383
10040SL     Si110318   2.340   1.206   5.797
10040SL      O110319   2.396   1.360   5.797
10040SL      H110320   2.430   1.452   5.797
10041SL     Si110321   2.087   4.860   0.113
10041SL      O110322   2.162   4.714   0.113
10041SL      H110323   2.207   4.627   0.113
10042SL     Si110324   2.087   4.860   0.423
10042SL      O110325   2.162   4.714   0.423
10042SL      H110326   2.207   4.627   0.423
10043SL     Si110327   2.340   5.006   0.940
10043SL      O110328   2.394   4.851   0.940
10043SL      H110329   2.426   4.758   0.940
10044SL     Si110330   2.087   4.860   1.353
10044SL      O110331   2.162   4.714   1.353
10044SL      H110332   2.207   4.627   1.353
10045SL     Si110333   2.087   4.860   1.663
10045SL      O110334   2.162   4.714   1.663
10045SL      H110335   2.207   4.627   1.663
10046SL     Si110336   2.340   5.006   2.180
10046SL      O110337   2.394   4.851   2.180
10046SL      H110338   2.426   4.758   2.180
10047SL     Si110339   2.087   4.860   2.593
10047SL      O110340   2.162   4.714   2.593
10047SL      H110341   2.207   4.627   2.593
10048SL     Si110342   2.087   4.860   2.903
10048SL      O110343   2.162   4.714   2.903
10048SL      H110344   2.207   4.627   2.903
10049SL     Si110345   2.340   5.006   3.420
10049SL      O110346   2.394   4.851   3.420
10049SL      H110347   2.426   4.758   3.420
10050SL     Si110348   2.087   4.860   3.833
10050SL      O110349   2.162   4.714   3.833
10050SL      H110350   2.207   4.627   3.833
10051SL     Si110351   2.087   4.860   4.143
10051SL      O110352   2.162   4.714   4.143
10051SL      H110353   2.207   4.627   4.143
10052SL     Si110354   2.340   5.006   4.660
10052SL      O110355   2.394   4.851   4.660
10052SL      H110356   2.426   4.758   4.660
10053SL     Si110357   2.087   4.860   5.073
10053SL      O110358   2.162   4.714   5.073
10053SL      H110359   2.207   4.627   5.073
10054SL     Si110360   2.087   4.860   5.383
10054SL      O110361   2.162   4.714   5.383
10054SL      H110362   2.207   4.627   5.383
10055SL     Si110363   2.340   5.006   5.900
10055SL      O110364   2.394   4.851   5.900
10055SL      H110365   2.426   4.758   5.900
10056SL     Si110366   2.340   5.006   0.010
10056SL      O110367   2.394   4.851   0.010
10056SL      H110368   2.426   4.758   0.010
10057SL     Si110369   2.340   5.006   1.250
10057SL      O110370   2.394   4.851   1.250
10057SL      H110371   2.426   4.758   1.250
10058SL     Si110372   2.340   5.006   2.490
10058SL      O110373   2.394   4.851   2.490
10058SL      H110374   2.426   4.758   2.490
10059SL     Si110375   2.340   5.006   3.730
10059SL      O110376   2.394   4.851   3.730
10059SL      H110377   2.426   4.758   3.730
10060SL     Si110378   2.340   5.006   4.970
10060SL      O110379   2.394   4.851   4.970
10060SL      H110380   2.426   4.758   4.970
10061SL     Si110381   2.593   1.060   0.010
10061SL      O110382   2.627   1.220   0.010
10061SL      H110383   2.647   1.316   0.010
10062SL     Si110384   2.593   1.060   0.940
10062SL      O110385   2.627   1.220   0.940
10062SL      H110386   2.647   1.316   0.940
10063SL     Si110387   2.593   1.060   1.250
10063SL      O110388   2.627   1.220   1.250
10063SL      H110389   2.647   1.316   1.250
10064SL     Si110390   2.593   1.060   2.180
10064SL      O110391   2.627   1.220   2.180
10064SL      H110392   2.647   1.316   2.180
10065SL     Si110393   2.593   1.060   2.490
10065SL      O110394   2.627   1.220   2.490
10065SL      H110395   2.647   1.316   2.490
10066SL     Si110396   2.593   1.060   3.420
10066SL      O110397   2.627   1.220   3.420
10066SL      H110398   2.647   1.316   3.420
10067SL     Si110399   2.593   1.060   3.730
10067SL      O110400   2.627   1.220   3.730
10067SL      H110401   2.647   1.316   3.730
10068SL     Si110402   2.593   1.060   4.660
10068SL      O110403   2.627   1.220   4.660
10068SL      H110404   2.647   1.316   4.660
10069SL     Si110405   2.593   1.060   4.970
10069SL      O110406   2.627   1.220   4.970
10069SL      H110407   2.647   1.316   4.970
10070SL     Si110408   2.593   1.060   5.900
10070SL      O110409   2.627   1.220   5.900
10070SL      H110410   2.647   1.316   5.900
10071SL     Si110411   2.593   5.152   0.527
10071SL      O110412   2.625   4.991   0.527
10071SL      H110413   2.645   4.895   0.527
10072SL     Si110414   2.593   5.152   1.767
10072SL      O110415   2.625   4.991   1.767
10072SL      H110416   2.645   4.895   1.767
10073SL     Si110417   2.593   5.152   3.007
10073SL      O110418   2.625   4.991   3.007
10073SL      H110419   2.645   4.895   3.007
10074SL     Si110420   2.593   5.152   4.247
10074SL      O110421   2.625   4.991   4.247
10074SL      H110422   2.645   4.895   4.247
10075SL     Si110423   2.593   5.152   5.487
10075SL      O110424   2.625   4.991   5.487
10075SL      H110425   2.645   4.895   5.487
10076SL     Si110426   3.099   1.060   0.010
10076SL      O110427   3.092   1.223   0.010
10076SL      H110428   3.088   1.321   0.010
10077SL     Si110429   2.846   0.913   0.423
10077SL      O110430   2.859   1.077   0.423
10077SL      H110431   2.867   1.175   0.423
10078SL     Si110432   3.099   1.060   1.250
10078SL      O110433   3.092   1.223   1.250
10078SL      H110434   3.088   1.321   1.250
10079SL     Si110435   2.846   0.913   1.663
10079SL      O110436   2.859   1.077   1.663
10079SL      H110437   2.867   1.175   1.663
10080SL     Si110438   3.099   1.060   2.490
10080SL      O110439   3.092   1.223   2.490
10080SL      H110440   3.088   1.321   2.490
10081SL     Si110441   2.846   0.913   2.903
10081SL      O110442   2.859   1.077   2.903
10081SL      H110443   2.867   1.175   2.903
10082SL     Si110444   3.099   1.060   3.730
10082SL      O110445   3.092   1.223   3.730
10082SL      H110446   3.088   1.321   3.730
10083SL     Si110447   2.846   0.913   4.143
10083SL      O110448   2.859   1.077   4.143
10083SL      H110449   2.867   1.175   4.143
10084SL     Si110450   3.099   1.060   4.970
10084SL      O110451   3.092   1.223   4.970
10084SL      H110452   3.088   1.321   4.970
10085SL     Si110453   2.846   0.913   5.383
10085SL      O110454   2.859   1.077   5.383
10085SL      H110455   2.867   1.175   5.383
10086SL     Si110456   2.846   5.006   0.940
10086SL      O110457   2.860   4.843   0.940
10086SL      H110458   2.869   4.745   0.940
10087SL     Si110459   2.846   5.006   2.180
10087SL      O110460   2.860   4.843   2.180
10087SL      H110461   2.869   4.745   2.180
10088SL     Si110462   2.846   5.006   3.420
10088SL      O110463   2.860   4.843   3.420
10088SL      H110464   2.869   4.745   3.420
10089SL     Si110465   2.846   5.006   4.660
10089SL      O110466   2.860   4.843   4.660
10089SL      H110467   2.869   4.745   4.660
10090SL     Si110468   2.846   5.006   5.900
10090SL      O110469   2.860   4.843   5.900
10090SL      H110470   2.869   4.745   5.900
10091SL     Si110471   3.352   5.006   0.010
10091SL      O110472   3.324   4.844   0.010
10091SL      H110473   3.307   4.748   0.010
10092SL     Si110474   3.099   5.152   0.527
10092SL      O110475   3.092   4.988   0.527
10092SL      H110476   3.088   4.890   0.527
10093SL     Si110477   3.352   5.006   1.250
10093SL      O110478   3.324   4.844   1.250
10093SL      H110479   3.307   4.748   1.250
10094SL     Si110480   3.099   5.152   1.767
10094SL      O110481   3.092   4.988   1.767
10094SL      H110482   3.088   4.890   1.767
10095SL     Si110483   3.352   5.006   2.490
10095SL      O110484   3.324   4.844   2.490
10095SL      H110485   3.307   4.748   2.490
10096SL     Si110486   3.099   5.152   3.007
10096SL      O110487   3.092   4.988   3.007
10096SL      H110488   3.088   4.890   3.007
10097SL     Si110489   3.352   5.006   3.730
10097SL      O110490   3.324   4.844   3.730
10097SL      H110491   3.307   4.748   3.730
10098SL     Si110492   3.099   5.152   4.247
10098SL      O110493   3.092   4.988   4.247
10098SL      H110494   3.088   4.890   4.247
10099SL     Si110495   3.352   5.006   4.970
10099SL      O110496   3.324   4.844   4.970
10099SL      H110497   3.307   4.748   4.970
10100SL     Si110498   3.099   5.152   5.487
10100SL      O110499   3.092   4.988   5.487
10100SL      H110500   3.088   4.890   5.487
10101SL     Si110501   3.352   0.913   0.423
10101SL      O110502   3.327   1.076   0.423
10101SL      H110503   3.311   1.172   0.423
10102SL     Si110504   3.352   0.913   1.663
10102SL      O110505   3.327   1.076   1.663
10102SL      H110506   3.311   1.172   1.663
10103SL     Si110507   3.352   0.913   2.903
10103SL      O110508   3.327   1.076   2.903
10103SL      H110509   3.311   1.172   2.903
10104SL     Si110510   3.352   0.913   4.143
10104SL      O110511   3.327   1.076   4.143
10104SL      H110512   3.311   1.172   4.143
10105SL     Si110513   3.352   0.913   5.383
10105SL      O110514   3.327   1.076   5.383
10105SL      H110515   3.311   1.172   5.383
10106SL     Si110516   3.605   1.060   0.940
10106SL      O110517   3.559   1.217   0.940
10106SL      H110518   3.531   1.311   0.940
10107SL     Si110519   3.605   1.060   2.180
10107SL      O110520   3.559   1.217   2.180
10107SL      H110521   3.531   1.311   2.180
10108SL     Si110522   3.605   1.060   3.420
10108SL      O110523   3.559   1.217   3.420
10108SL      H110524   3.531   1.311   3.420
10109SL     Si110525   3.605   1.060   4.660
10109SL      O110526   3.559   1.217   4.660
10109SL      H110527   3.531   1.311   4.660
10110SL     Si110528   3.605   1.060   5.900
10110SL      O110529   3.559   1.217   5.900
10110SL      H110530   3.531   1.311   5.900
10111SL     Si110531   3.352   5.006   0.940
10111SL      O110532   3.324   4.844   0.940
10111SL      H110533   3.307   4.748   0.940
10112SL     Si110534   3.352   5.006   2.180
10112SL      O110535   3.324   4.844   2.180
10112SL      H110536   3.307   4.748   2.180
10113SL     Si110537   3.352   5.006   3.420
10113SL      O110538   3.324   4.844   3.420
10113SL      H110539   3.307   4.748   3.420
10114SL     Si110540   3.352   5.006   4.660
10114SL      O110541   3.324   4.844   4.660
10114SL      H110542   3.307   4.748   4.660
10115SL     Si110543   3.352   5.006   5.900
10115SL      O110544   3.324   4.844   5.900
10115SL      H110545   3.307   4.748   5.900
10116SL     Si110546   3.605   1.060   0.010
10116SL      O110547   3.559   1.217   0.010
10116SL      H110548   3.531   1.311   0.010
10117SL     Si110549   3.605   1.060   1.250
10117SL      O110550   3.559   1.217   1.250
10117SL      H110551   3.531   1.311   1.250
10118SL     Si110552   3.605   1.060   2.490
10118SL      O110553   3.559   1.217   2.490
10118SL      H110554   3.531   1.311   2.490
10119SL     Si110555   3.605   1.060   3.730
10119SL      O110556   3.559   1.217   3.730
10119SL      H110557   3.531   1.311   3.730
10120SL     Si110558   3.605   1.060   4.970
10120SL      O110559   3.559   1.217   4.970
10120SL      H110560   3.531   1.311   4.970
10121SL     Si110561   4.111   1.352   0.113
10121SL      O110562   4.022   1.490   0.113
10121SL      H110563   3.969   1.572   0.113
10122SL     Si110564   3.858   1.206   0.527
10122SL      O110565   3.790   1.355   0.527
10122SL      H110566   3.750   1.444   0.527
10123SL     Si110567   3.858   1.206   0.837
10123SL      O110568   3.790   1.355   0.837
10123SL      H110569   3.750   1.444   0.837
10124SL     Si110570   4.111   1.352   1.353
10124SL      O110571   4.022   1.490   1.353
10124SL      H110572   3.969   1.572   1.353
10125SL     Si110573   3.858   1.206   1.767
10125SL      O110574   3.790   1.355   1.767
10125SL      H110575   3.750   1.444   1.767
10126SL     Si110576   3.858   1.206   2.077
10126SL      O110577   3.790   1.355   2.077
10126SL      H110578   3.750   1.444   2.077
10127SL     Si110579   4.111   1.352   2.593
10127SL      O110580   4.022   1.490   2.593
10127SL      H110581   3.969   1.572   2.593
10128SL     Si110582   3.858   1.206   3.007
10128SL      O110583   3.790   1.355   3.007
10128SL      H110584   3.750   1.444   3.007
10129SL     Si110585   3.858   1.206   3.317
10129SL      O110586   3.790   1.355   3.317
10129SL      H110587   3.750   1.444   3.317
10130SL     Si110588   4.111   1.352   3.833
10130SL      O110589   4.022   1.490   3.833
10130SL      H110590   3.969   1.572   3.833
10131SL     Si110591   3.858   1.206   4.247
10131SL      O110592   3.790   1.355   4.247
10131SL      H110593   3.750   1.444   4.247
10132SL     Si110594   3.858   1.206   4.557
10132SL      O110595   3.790   1.355   4.557
10132SL      H110596   3.750   1.444   4.557
10133SL     Si110597   4.111   1.352   5.073
10133SL      O110598   4.022   1.490   5.073
10133SL      H110599   3.969   1.572   5.073
10134SL     Si110600   3.858   1.206   5.487
10134SL      O110601   3.790   1.355   5.487
10134SL      H110602   3.750   1.444   5.487
10135SL     Si110603   3.858   1.206   5.797
10135SL      O110604   3.790   1.355   5.797
10135SL      H110605   3.750   1.444   5.797
10136SL     Si110606   3.605   4.860   0.113
10136SL      O110607   3.554   4.704   0.113
10136SL      H110608   3.523   4.611   0.113
10137SL     Si110609   4.111   4.860   0.423
10137SL      O110610   4.026   4.720   0.423
10137SL      H110611   3.975   4.636   0.423
10138SL     Si110612   3.858   5.006   0.940
10138SL      O110613   3.793   4.856   0.940
10138SL      H110614   3.754   4.766   0.940
10139SL     Si110615   3.605   4.860   1.353
10139SL      O110616   3.554   4.704   1.353
10139SL      H110617   3.523   4.611   1.353
10140SL     Si110618   4.111   4.860   1.663
10140SL      O110619   4.026   4.720   1.663
10140SL      H110620   3.975   4.636   1.663
10141SL     Si110621   3.858   5.006   2.180
10141SL      O110622   3.793   4.856   2.180
10141SL      H110623   3.754   4.766   2.180
10142SL     Si110624   3.605   4.860   2.593
10142SL      O110625   3.554   4.704   2.593
10142SL      H110626   3.523   4.611   2.593
10143SL     Si110627   4.111   4.860   2.903
10143SL      O110628   4.026   4.720   2.903
10143SL      H110629   3.975   4.636   2.903
10144SL     Si110630   3.858   5.006   3.420
10144SL      O110631   3.793   4.856   3.420
10144SL      H110632   3.754   4.766   3.420
10145SL     Si110633   3.605   4.860   3.833
10145SL      O110634   3.554   4.704   3.833
10145SL      H110635   3.523   4.611   3.833
10146SL     Si110636   4.111   4.860   4.143
10146SL      O110637   4.026   4.720   4.143
10146SL      H110638   3.975   4.636   4.143
10147SL     Si110639   3.858   5.006   4.660
10147SL      O110640   3.793   4.856   4.660
10147SL      H110641   3.754   4.766   4.660
10148SL     Si110642   3.605   4.860   5.073
10148SL      O110643   3.554   4.704   5.073
10148SL      H110644   3.523   4.611   5.073
10149SL     Si110645   4.111   4.860   5.383
10149SL      O110646   4.026   4.720   5.383
10149SL      H110647   3.975   4.636   5.383
10150SL     Si110648   3.858   5.006   5.900
10150SL      O110649   3.793   4.856   5.900
10150SL      H110650   3.754   4.766   5.900
10151SL     Si110651   4.364   1.498   0.010
10151SL      O110652   4.257   1.622   0.010
10151SL      H110653   4.193   1.696   0.010
10152SL     Si110654   4.111   1.352   0.423
10152SL      O110655   4.022   1.490   0.423
10152SL      H110656   3.969   1.572   0.423
10153SL     Si110657   4.364   1.498   0.940
10153SL      O110658   4.257   1.622   0.940
10153SL      H110659   4.193   1.696   0.940
10154SL     Si110660   4.364   1.498   1.250
10154SL      O110661   4.257   1.622   1.250
10154SL      H110662   4.193   1.696   1.250
10155SL     Si110663   4.111   1.352   1.663
10155SL      O110664   4.022   1.490   1.663
10155SL      H110665   3.969   1.572   1.663
10156SL     Si110666   4.364   1.498   2.180
10156SL      O110667   4.257   1.622   2.180
10156SL      H110668   4.193   1.696   2.180
10157SL     Si110669   4.364   1.498   2.490
10157SL      O110670   4.257   1.622   2.490
10157SL      H110671   4.193   1.696   2.490
10158SL     Si110672   4.111   1.352   2.903
10158SL      O110673   4.022   1.490   2.903
10158SL      H110674   3.969   1.572   2.903
10159SL     Si110675   4.364   1.498   3.420
10159SL      O110676   4.257   1.622   3.420
10159SL      H110677   4.193   1.696   3.420
10160SL     Si110678   4.364   1.498   3.730
10160SL      O110679   4.257   1.622   3.730
10160SL      H110680   4.193   1.696   3.730
10161SL     Si110681   4.111   1.352   4.143
10161SL      O110682   4.022   1.490   4.143
10161SL      H110683   3.969   1.572   4.143
10162SL     Si110684   4.364   1.498   4.660
10162SL      O110685   4.257   1.622   4.660
10162SL      H110686   4.193   1.696   4.660
10163SL     Si110687   4.364   1.498   4.970
10163SL      O110688   4.257   1.622   4.970
10163SL      H110689   4.193   1.696   4.970
10164SL     Si110690   4.111   1.352   5.383
10164SL      O110691   4.022   1.490   5.383
10164SL      H110692   3.969   1.572   5.383
10165SL     Si110693   4.364   1.498   5.900
10165SL      O110694   4.257   1.622   5.900
10165SL      H110695   4.193   1.696   5.900
10166SL     Si110696   4.617   1.644   0.527
10166SL      O110697   4.494   1.753   0.527
10166SL      H110698   4.420   1.817   0.527
10167SL     Si110699   4.617   1.644   1.767
10167SL      O110700   4.494   1.753   1.767
10167SL      H110701   4.420   1.817   1.767
10168SL     Si110702   4.617   1.644   3.007
10168SL      O110703   4.494   1.753   3.007
10168SL      H110704   4.420   1.817   3.007
10169SL     Si110705   4.617   1.644   4.247
10169SL      O110706   4.494   1.753   4.247
10169SL      H110707   4.420   1.817   4.247
10170SL     Si110708   4.617   1.644   5.487
10170SL      O110709   4.494   1.753   5.487
10170SL      H110710   4.420   1.817   5.487
10171SL     Si110711   4.617   1.937   0.940
10171SL      O110712   4.483   2.031   0.940
10171SL      H110713   4.402   2.087   0.940
10172SL     Si110714   4.617   1.937   2.180
10172SL      O110715   4.483   2.031   2.180
10172SL      H110716   4.402   2.087   2.180
10173SL     Si110717   4.617   1.937   3.420
10173SL      O110718   4.483   2.031   3.420
10173SL      H110719   4.402   2.087   3.420
10174SL     Si110720   4.617   1.937   4.660
10174SL      O110721   4.483   2.031   4.660
10174SL      H110722   4.402   2.087   4.660
10175SL     Si110723   4.617   1.937   5.900
10175SL      O110724   4.483   2.031   5.900
10175SL      H110725   4.402   2.087   5.900
10176SL     Si110726   4.364   4.422   0.423
10176SL      O110727   4.249   4.305   0.423
10176SL      H110728   4.180   4.235   0.423
10177SL     Si110729   4.617   4.275   0.837
10177SL      O110730   4.486   4.176   0.837
10177SL      H110731   4.408   4.117   0.837
10178SL     Si110732   4.364   4.422   1.663
10178SL      O110733   4.249   4.305   1.663
10178SL      H110734   4.180   4.235   1.663
10179SL     Si110735   4.617   4.275   2.077
10179SL      O110736   4.486   4.176   2.077
10179SL      H110737   4.408   4.117   2.077
10180SL     Si110738   4.364   4.422   2.903
10180SL      O110739   4.249   4.305   2.903
10180SL      H110740   4.180   4.235   2.903
10181SL     Si110741   4.617   4.275   3.317
10181SL      O110742   4.486   4.176   3.317
10181SL      H110743   4.408   4.117   3.317
10182SL     Si110744   4.364   4.422   4.143
10182SL      O110745   4.249   4.305   4.143
10182SL      H110746   4.180   4.235   4.143
10183SL     Si110747   4.617   4.275   4.557
10183SL      O110748   4.486   4.176   4.557
10183SL      H110749   4.408   4.117   4.557
10184SL     Si110750   4.364   4.422   5.383
10184SL      O110751   4.249   4.305   5.383
10184SL      H110752   4.180   4.235   5.383
10185SL     Si110753   4.617   4.275   5.797
10185SL      O110754   4.486   4.176   5.797
10185SL      H110755   4.408   4.117   5.797
10186SL     Si110756   4.111   4.860   0.113
10186SL      O110757   4.026   4.720   0.113
10186SL      H110758   3.975   4.636   0.113
10187SL     Si110759   4.364   4.714   0.837
10187SL      O110760   4.261   4.587   0.837
10187SL      H110761   4.199   4.511   0.837
10188SL     Si110762   4.111   4.860   1.353
10188SL      O110763   4.026   4.720   1.353
10188SL      H110764   3.975   4.636   1.353
10189SL     Si110765   4.364   4.714   2.077
10189SL      O110766   4.261   4.587   2.077
10189SL      H110767   4.199   4.511   2.077
10190SL     Si110768   4.111   4.860   2.593
10190SL      O110769   4.026   4.720   2.593
10190SL      H110770   3.975   4.636   2.593
10191SL     Si110771   4.364   4.714   3.317
10191SL      O110772   4.261   4.587   3.317
10191SL      H110773   4.199   4.511   3.317
10192SL     Si110774   4.111   4.860   3.833
10192SL      O110775   4.026   4.720   3.833
10192SL      H110776   3.975   4.636   3.833
10193SL     Si110777   4.364   4.714   4.557
10193SL      O110778   4.261   4.587   4.557
10193SL      H110779   4.199   4.511   4.557
10194SL     Si110780   4.111   4.860   5.073
10194SL      O110781   4.026   4.720   5.073
10194SL      H110782   3.975   4.636   5.073
10195SL     Si110783   4.364   4.714   5.797
10195SL      O110784   4.261   4.587   5.797
10195SL      H110785   4.199   4.511   5.797
10196SL     Si110786   4.870   2.375   0.010
10196SL      O110787   4.716   2.432   0.010
10196SL      H110788   4.624   2.465   0.010
10197SL     Si110789   4.870   2.083   0.527
10197SL      O110790   4.725   2.159   0.527
10197SL      H110791   4.638   2.205   0.527
10198SL     Si110792   4.870   2.375   1.250
10198SL      O110793   4.716   2.432   1.250
10198SL      H110794   4.624   2.465   1.250
10199SL     Si110795   4.870   2.083   1.767
10199SL      O110796   4.725   2.159   1.767
10199SL      H110797   4.638   2.205   1.767
10200SL     Si110798   4.870   2.375   2.490
10200SL      O110799   4.716   2.432   2.490
10200SL      H110800   4.624   2.465   2.490
10201SL     Si110801   4.870   2.083   3.007
10201SL      O110802   4.725   2.159   3.007
10201SL      H110803   4.638   2.205   3.007
10202SL     Si110804   4.870   2.375   3.730
10202SL      O110805   4.716   2.432   3.730
10202SL      H110806   4.624   2.465   3.730
10203SL     Si110807   4.870   2.083   4.247
10203SL      O110808   4.725   2.159   4.247
10203SL      H110809   4.638   2.205   4.247
10204SL     Si110810   4.870   2.375   4.970
10204SL      O110811   4.716   2.432   4.970
10204SL      H110812   4.624   2.465   4.970
10205SL     Si110813   4.870   2.083   5.487
10205SL      O110814   4.725   2.159   5.487
10205SL      H110815   4.638   2.205   5.487
10206SL     Si110816   4.870   2.375   0.940
10206SL      O110817   4.716   2.432   0.940
10206SL      H110818   4.624   2.465   0.940
10207SL     Si110819   4.870   2.375   2.180
10207SL      O110820   4.716   2.432   2.180
10207SL      H110821   4.624   2.465   2.180
10208SL     Si110822   4.870   2.375   3.420
10208SL      O110823   4.716   2.432   3.420
10208SL      H110824   4.624   2.465   3.420
10209SL     Si110825   4.870   2.375   4.660
10209SL      O110826   4.716   2.432   4.660
10209SL      H110827   4.624   2.465   4.660
10210SL     Si110828   4.870   2.375   5.900
10210SL      O110829   4.716   2.432   5.900
10210SL      H110830   4.624   2.465   5.900
10211SL     Si110831   4.870   2.668   0.113
10211SL      O110832   4.710   2.701   0.113
10211SL      H110833   4.614   2.721   0.113
10212SL     Si110834   4.870   2.668   1.353
10212SL      O110835   4.710   2.701   1.353
10212SL      H110836   4.614   2.721   1.353
10213SL     Si110837   4.870   2.668   2.593
10213SL      O110838   4.710   2.701   2.593
10213SL      H110839   4.614   2.721   2.593
10214SL     Si110840   4.870   2.668   3.833
10214SL      O110841   4.710   2.701   3.833
10214SL      H110842   4.614   2.721   3.833
10215SL     Si110843   4.870   2.668   5.073
10215SL      O110844   4.710   2.701   5.073
10215SL      H110845   4.614   2.721   5.073
10216SL     Si110846   4.870   3.545   0.423
10216SL      O110847   4.711   3.503   0.423
10216SL      H110848   4.617   3.478   0.423
10217SL     Si110849   4.870   3.545   1.663
10217SL      O110850   4.711   3.503   1.663
10217SL      H110851   4.617   3.478   1.663
10218SL     Si110852   4.870   3.545   2.903
10218SL      O110853   4.711   3.503   2.903
10218SL      H110854   4.617   3.478   2.903
10219SL     Si110855   4.870   3.545   4.143
10219SL      O110856   4.711   3.503   4.143
10219SL      H110857   4.617   3.478   4.143
10220SL     Si110858   4.870   3.545   5.383
10220SL      O110859   4.711   3.503   5.383
10220SL      H110860   4.617   3.478   5.383
10221SL     Si110861   4.870   4.129   0.010
10221SL      O110862   4.728   4.047   0.010
10221SL      H110863   4.643   3.998   0.010
10222SL     Si110864   4.617   4.275   0.527
10222SL      O110865   4.486   4.176   0.527
10222SL      H110866   4.408   4.117   0.527
10223SL     Si110867   4.870   3.837   0.527
10223SL      O110868   4.719   3.773   0.527
10223SL      H110869   4.629   3.735   0.527
10224SL     Si110870   4.870   3.837   0.837
10224SL      O110871   4.719   3.773   0.837
10224SL      H110872   4.629   3.735   0.837
10225SL     Si110873   4.870   4.129   1.250
10225SL      O110874   4.728   4.047   1.250
10225SL      H110875   4.643   3.998   1.250
10226SL     Si110876   4.617   4.275   1.767
10226SL      O110877   4.486   4.176   1.767
10226SL      H110878   4.408   4.117   1.767
10227SL     Si110879   4.870   3.837   1.767
10227SL      O110880   4.719   3.773   1.767
10227SL      H110881   4.629   3.735   1.767
10228SL     Si110882   4.870   3.837   2.077
10228SL      O110883   4.719   3.773   2.077
10228SL      H110884   4.629   3.735   2.077
10229SL     Si110885   4.870   4.129   2.490
10229SL      O110886   4.728   4.047   2.490
10229SL      H110887   4.643   3.998   2.490
10230SL     Si110888   4.617   4.275   3.007
10230SL      O110889   4.486   4.176   3.007
10230SL      H110890   4.408   4.117   3.007
10231SL     Si110891   4.870   3.837   3.007
10231SL      O110892   4.719   3.773   3.007
10231SL      H110893   4.629   3.735   3.007
10232SL     Si110894   4.870   3.837   3.317
10232SL      O110895   4.719   3.773   3.317
10232SL      H110896   4.629   3.735   3.317
10233SL     Si110897   4.870   4.129   3.730
10233SL      O110898   4.728   4.047   3.730
10233SL      H110899   4.643   3.998   3.730
10234SL     Si110900   4.617   4.275   4.247
10234SL      O110901   4.486   4.176   4.247
10234SL      H110902   4.408   4.117   4.247
10235SL     Si110903   4.870   3.837   4.247
10235SL      O110904   4.719   3.773   4.247
10235SL      H110905   4.629   3.735   4.247
10236SL     Si110906   4.870   3.837   4.557
10236SL      O110907   4.719   3.773   4.557
10236SL      H110908   4.629   3.735   4.557
10237SL     Si110909   4.870   4.129   4.970
10237SL      O110910   4.728   4.047   4.970
10237SL      H110911   4.643   3.998   4.970
10238SL     Si110912   4.617   4.275   5.487
10238SL      O110913   4.486   4.176   5.487
10238SL      H110914   4.408   4.117   5.487
10239SL     Si110915   4.870   3.837   5.487
10239SL      O110916   4.719   3.773   5.487
10239SL      H110917   4.629   3.735   5.487
10240SL     Si110918   4.870   3.837   5.797
10240SL      O110919   4.719   3.773   5.797
10240SL      H110920   4.629   3.735   5.797
10241SL     Si110921   5.123   3.106   0.113
10241SL      O110922   4.959   3.102   0.113
10241SL      H110923   4.861   3.100   0.113
10242SL     Si110924   5.123   3.106   0.423
10242SL      O110925   4.959   3.102   0.423
10242SL      H110926   4.861   3.100   0.423
10243SL     Si110927   5.123   2.814   0.940
10243SL      O110928   4.960   2.832   0.940
10243SL      H110929   4.863   2.844   0.940
10244SL     Si110930   5.123   3.106   1.353
10244SL      O110931   4.959   3.102   1.353
10244SL      H110932   4.861   3.100   1.353
10245SL     Si110933   5.123   3.106   1.663
10245SL      O110934   4.959   3.102   1.663
10245SL      H110935   4.861   3.100   1.663
10246SL     Si110936   5.123   2.814   2.180
10246SL      O110937   4.960   2.832   2.180
10246SL      H110938   4.863   2.844   2.180
10247SL     Si110939   5.123   3.106   2.593
10247SL      O110940   4.959   3.102   2.593
10247SL      H110941   4.861   3.100   2.593
10248SL     Si110942   5.123   3.106   2.903
10248SL      O110943   4.959   3.102   2.903
10248SL      H110944   4.861   3.100   2.903
10249SL     Si110945   5.123   2.814   3.420
10249SL      O110946   4.960   2.832   3.420
10249SL      H110947   4.863   2.844   3.420
10250SL     Si110948   5.123   3.106   3.833
10250SL      O110949   4.959   3.102   3.833
10250SL      H110950   4.861   3.100   3.833
10251SL     Si110951   5.123   3.106   4.143
10251SL      O110952   4.959   3.102   4.143
10251SL      H110953   4.861   3.100   4.143
10252SL     Si110954   5.123   2.814   4.660
10252SL      O110955   4.960   2.832   4.660
10252SL      H110956   4.863   2.844   4.660
10253SL     Si110957   5.123   3.106   5.073
10253SL      O110958   4.959   3.102   5.073
10253SL      H110959   4.861   3.100   5.073
10254SL     Si110960   5.123   3.106   5.383
10254SL      O110961   4.959   3.102   5.383
10254SL      H110962   4.861   3.100   5.383
10255SL     Si110963   5.123   2.814   5.900
10255SL      O110964   4.960   2.832   5.900
10255SL      H110965   4.863   2.844   5.900
10256SL     Si110966   5.123   3.398   0.837
10256SL      O110967   4.961   3.372   0.837
10256SL      H110968   4.864   3.356   0.837
10257SL     Si110969   5.123   3.398   2.077
10257SL      O110970   4.961   3.372   2.077
10257SL      H110971   4.864   3.356   2.077
10258SL     Si110972   5.123   3.398   3.317
10258SL      O110973   4.961   3.372   3.317
10258SL      H110974   4.864   3.356   3.317
10259SL     Si110975   5.123   3.398   4.557
10259SL      O110976   4.961   3.372   4.557
10259SL      H110977   4.864   3.356   4.557
10260SL     Si110978   5.123   3.398   5.797
10260SL      O110979   4.961   3.372   5.797
10260SL      H110980   4.864   3.356   5.797
10261SLG    Si110981   1.328   2.083   0.837
10261SLG     O110982   1.470   2.165   0.837
10261SLG     H110983   1.555   2.214   0.837
10261SLG     O210984   1.458   2.091   0.736
10261SLG     H210985   1.542   2.140   0.736
10262SLG    Si110986   1.328   2.083   2.077
10262SLG     O110987   1.470   2.165   2.077
10262SLG     H110988   1.555   2.214   2.077
10262SLG     O210989   1.458   2.091   1.976
10262SLG     H210990   1.542   2.140   1.976
10263SLG    Si110991   1.328   2.083   3.317
10263SLG     O110992   1.470   2.165   3.317
10263SLG     H110993   1.555   2.214   3.317
10263SLG     O210994   1.458   2.091   3.216
10263SLG     H210995   1.542   2.140   3.216
10264SLG    Si110996   1.328   2.083   4.557
10264SLG     O110997   1.470   2.165   4.557
10264SLG     H110998   1.555   2.214   4.557
10264SLG     O210999   1.458   2.091   4.456
10264SLG     H211000   1.542   2.140   4.456
10265SLG    Si111001   1.328   2.083   5.797
10265SLG     O111002   1.470   2.165   5.797
10265SLG     H111003   1.555   2.214   5.797
10265SLG     O211004   1.458   2.091   5.696
10265SLG     H211005   1.542   2.140   5.696
10266SLG    Si111006   1.328   4.129   0.940
10266SLG     O111007   1.467   4.041   0.940
10266SLG     H111008   1.549   3.989   0.940
10266SLG     O211009   1.459   4.119   0.842
10266SLG     H211010   1.542   4.067   0.842
10267SLG    Si111011   1.328   4.129   2.180
10267SLG     O111012   1.467   4.041   2.180
10267SLG     H111013   1.549   3.989   2.180
10267SLG     O211014   1.459   4.119   2.082
10267SLG     H211015   1.542   4.067   2.082
10268SLG    Si111016   1.328   4.129   3.420
10268SLG     O111017   1.467   4.041   3.420
10268SLG     H111018   1.549   3.989   3.420
10268SLG     O211019   1.459   4.119   3.322
10268SLG     H211020   1.542   4.067   3.322
10269SLG    Si111021   1.328   4.129   4.660
10269SLG     O111022   1.467   4.041   4.660
10269SLG     H111023   1.549   3.989   4.660
10269SLG     O211024   1.459   4.119   4.562
10269SLG     H211025   1.542   4.067   4.562
10270SLG    Si111026   1.328   4.129   5.900
10270SLG     O111027   1.467   4.041   5.900
10270SLG     H111028   1.549   3.989   5.900
10270SLG     O211029   1.459   4.119   5.802
10270SLG     H211030   1.542   4.067   5.802
10271SLG    Si111031   2.846   5.006   0.010
10271SLG     O111032   2.860   4.843   0.010
10271SLG     H111033   2.869   4.745   0.010
10271SLG     O211034   2.971   4.900   0.000
10271SLG     H211035   2.980   4.803   0.000
10272SLG    Si111036   2.846   5.006   1.250
10272SLG     O111037   2.860   4.843   1.250
10272SLG     H111038   2.869   4.745   1.250
10272SLG     O211039   2.971   4.900   1.240
10272SLG     H211040   2.980   4.803   1.240
10273SLG    Si111041   2.846   5.006   2.490
10273SLG     O111042   2.860   4.843   2.490
10273SLG     H111043   2.869   4.745   2.490
10273SLG     O211044   2.971   4.900   2.480
10273SLG     H211045   2.980   4.803   2.480
10274SLG    Si111046   2.846   5.006   3.730
10274SLG     O111047   2.860   4.843   3.730
10274SLG     H111048   2.869   4.745   3.730
10274SLG     O211049   2.971   4.900   3.720
10274SLG     H211050   2.980   4.803   3.720
10275SLG    Si111051   2.846   5.006   4.970
10275SLG     O111052   2.860   4.843   4.970
10275SLG     H111053   2.869   4.745   4.970
10275SLG     O211054   2.971   4.900   4.960
10275SLG     H211055   2.980   4.803   4.960
10276SLG    Si111056   3.099   1.060   0.940
10276SLG     O111057   3.092   1.223   0.940
10276SLG     H111058   3.088   1.321   0.940
10276SLG     O211059   3.210   1.180   0.945
10276SLG     H211060   3.206   1.278   0.945
10277SLG    Si111061   3.099   1.060   2.180
10277SLG     O111062   3.092   1.223   2.180
10277SLG     H111063   3.088   1.321   2.180
10277SLG     O211064   3.210   1.180   2.185
10277SLG     H211065   3.206   1.278   2.185
10278SLG    Si111066   3.099   1.060   3.420
10278SLG     O111067   3.092   1.223   3.420
10278SLG     H111068   3.088   1.321   3.420
10278SLG     O211069   3.210   1.180   3.425
10278SLG     H211070   3.206   1.278   3.425
10279SLG    Si111071   3.099   1.060   4.660
10279SLG     O111072   3.092   1.223   4.660
10279SLG     H111073   3.088   1.321   4.660
10279SLG     O211074   3.210   1.180   4.665
10279SLG     H211075   3.206   1.278   4.665
10280SLG    Si111076   3.099   1.060   5.900
10280SLG     O111077   3.092   1.223   5.900
10280SLG     H111078   3.088   1.321   5.900
10280SLG     O211079   3.210   1.180   5.905
10280SLG     H211080   3.206   1.278   5.905
10281SLG    Si111081   3.605   4.860   0.423
10281SLG     O111082   3.554   4.704   0.423
10281SLG     H111083   3.523   4.611   0.423
10281SLG     O211084   3.674   4.715   0.459
10281SLG     H211085   3.643   4.622   0.459
10282SLG    Si111086   3.605   4.860   1.663
10282SLG     O111087   3.554   4.704   1.663
10282SLG     H111088   3.523   4.611   1.663
10282SLG     O211089   3.674   4.715   1.699
10282SLG     H211090   3.643   4.622   1.699
10283SLG    Si111091   3.605   4.860   2.903
10283SLG     O111092   3.554   4.704   2.903
10283SLG     H111093   3.523   4.611   2.903
10283SLG     O211094   3.674   4.715   2.939
10283SLG     H211095   3.643   4.622   2.939
10284SLG    Si111096   3.605   4.860   4.143
10284SLG     O111097   3.554   4.704   4.143
10284SLG     H111098   3.523   4.611   4.143
10284SLG     O211099   3.674   4.715   4.179
10284SLG     H211100   3.643   4.622   4.179
10285SLG    Si111101   3.605   4.860   5.383
10285SLG     O111102   3.554   4.704   5.383
10285SLG     H111103   3.523   4.611   5.383
10285SLG     O211104   3.674   4.715   5.419
10285SLG     H211105   3.643   4.622   5.419
10286SLG    Si111106   4.617   1.937   0.010
10286SLG     O111107   4.483   2.031   0.010
10286SLG     H111108   4.402   2.087   0.010
10286SLG     O211109   4.560   2.058   0.105
10286SLG     H211110   4.480   2.114   0.105
10287SLG    Si111111   4.617   1.937   1.250
10287SLG     O111112   4.483   2.031   1.250
10287SLG     H111113   4.402   2.087   1.250
10287SLG     O211114   4.560   2.058   1.345
10287SLG     H211115   4.480   2.114   1.345
10288SLG    Si111116   4.617   1.937   2.490
10288SLG     O111117   4.483   2.031   2.490
10288SLG     H111118   4.402   2.087   2.490
10288SLG     O211119   4.560   2.058   2.585
10288SLG     H211120   4.480   2.114   2.585
10289SLG    Si111121   4.617   1.937   3.730
10289SLG     O111122   4.483   2.031   3.730
10289SLG     H111123   4.402   2.087   3.730
10289SLG     O211124   4.560   2.058   3.825
10289SLG     H211125   4.480   2.114   3.825
10290SLG    Si111126   4.617   1.937   4.970
10290SLG     O111127   4.483   2.031   4.970
10290SLG     H111128   4.402   2.087   4.970
10290SLG     O211129   4.560   2.058   5.065
10290SLG     H211130   4.480   2.114   5.065
10291SLG    Si111131   4.364   4.422   0.113
10291SLG     O111132   4.249   4.305   0.113
10291SLG     H111133   4.180   4.235   0.113
10291SLG     O211134   4.341   4.281   0.195
10291SLG     H211135   4.272   4.211   0.195
10292SLG    Si111136   4.364   4.422   1.353
10292SLG     O111137   4.249   4.305   1.353
10292SLG     H111138   4.180   4.235   1.353
10292SLG     O211139   4.341   4.281   1.435
10292SLG     H211140   4.272   4.211   1.435
10293SLG    Si111141   4.364   4.422   2.593
10293SLG     O111142   4.249   4.305   2.593
10293SLG     H111143   4.180   4.235   2.593
10293SLG     O211144   4.341   4.281   2.675
10293SLG     H211145   4.272   4.211   2.675
10294SLG    Si111146   4.364   4.422   3.833
10294SLG     O111147   4.249   4.305   3.833
10294SLG     H111148   4.180   4.235   3.833
10294SLG     O211149   4.341   4.281   3.915
10294SLG     H211150   4.272   4.211   3.915
10295SLG    Si111151   4.364   4.422   5.073
10295SLG     O111152   4.249   4.305   5.073
10295SLG     H111153   4.180   4.235   5.073
10295SLG     O211154   4.341   4.281   5.155
10295SLG     H211155   4.272   4.211   5.155
10296SLG    Si111156   4.870   2.668   0.423
10296SLG     O111157   4.710   2.701   0.423
10296SLG     H111158   4.614   2.721   0.423
10296SLG     O211159   4.762   2.715   0.537
10296SLG     H211160   4.666   2.735   0.537
10297SLG    Si111161   4.870   2.668   1.663
10297SLG     O111162   4.710   2.701   1.663
10297SLG     H111163   4.614   2.721   1.663
10297SLG     O211164   4.762   2.715   1.777
10297SLG     H211165   4.666   2.735   1.777
10298SLG    Si111166   4.870   2.668   2.903
10298SLG     O111167   4.710   2.701   2.903
10298SLG     H111168   4.614   2.721   2.903
10298SLG     O211169   4.762   2.715   3.017
10298SLG     H211170   4.666   2.735   3.017
10299SLG    Si111171   4.870   2.668   4.143
10299SLG     O111172   4.710   2.701   4.143
10299SLG     H111173   4.614   2.721   4.143
10299SLG     O211174   4.762   2.715   4.257
10299SLG     H211175   4.666   2.735   4.257
10300SLG    Si111176   4.870   2.668   5.383
10300SLG     O111177   4.710   2.701   5.383
10300SLG     H111178   4.614   2.721   5.383
10300SLG     O211179   4.762   2.715   5.497
10300SLG     H211180   4.666   2.735   5.497
10301SLG    Si111181   4.870   3.545   0.113
10301SLG     O111182   4.711   3.503   0.113
10301SLG     H111183   4.617   3.478   0.113
10301SLG     O211184   4.765   3.487   0.225
10301SLG     H211185   4.671   3.462   0.225
10302SLG    Si111186   4.870   3.545   1.353
10302SLG     O111187   4.711   3.503   1.353
10302SLG     H111188   4.617   3.478   1.353
10302SLG     O211189   4.765   3.487   1.465
10302SLG     H211190   4.671   3.462   1.465
10303SLG    Si111191   4.870   3.545   2.593
10303SLG     O111192   4.711   3.503   2.593
10303SLG     H111193   4.617   3.478   2.593
10303SLG     O211194   4.765   3.487   2.705
10303SLG     H211195   4.671   3.462   2.705
10304SLG    Si111196   4.870   3.545   3.833
10304SLG     O111197   4.711   3.503   3.833
10304SLG     H111198   4.617   3.478   3.833
10304SLG     O211199   4.765   3.487   3.945
10304SLG     H211200   4.671   3.462   3.945
10305SLG    Si111201   4.870   3.545   5.073
10305SLG     O111202   4.711   3.503   5.073
10305SLG     H111203   4.617   3.478   5.073
10305SLG     O211204   4.765   3.487   5.185
10305SLG     H211205   4.671   3.462   5.185
6.072 6.139 6.055
