;
; See literature references in forcefield.itp and atomtypes.atp
;

[ moleculetype ]
; molname   nrexcl
NA          1

[ atoms ]
; id    at type     res nr  residu name at name  cg nr  charge   mass
1       opls_407    1       NA          NA       1      1        22.98977     


[ moleculetype ]
; molname   nrexcl
CL      1

[ atoms ]
; id    at type     res nr  residu name at name  cg nr  charge   mass
1       opls_401    1       CL          CL       1      -1       35.45300

