[ moleculetype ]
; Name            nrexcl
TMS          3

[ atoms ]
;   nr       type  resnr residue  atom   cgnr    charge       mass  typeB    chargeB      massB
; residue    1 TMS rtp TMS q -0.0
    1         si      1    TMS    Si1      1   1.279146    28.0860   ; qtot  0.1176, original 1.28
    2         os      1    TMS     O1      2  -0.421655    16.0000   ; qtot -0.3040
    3         si      1    TMS    Si2      3   0.147745    28.0860   ; qtot -0.1563
    4         c3      1    TMS     C1      4  -0.107155    12.0100   ; qtot -0.2634
    5         c3      1    TMS     C2      5  -0.107155    12.0100   ; qtot -0.3706
    6         c3      1    TMS     C3      6  -0.107155    12.0100   ; qtot -0.4777
    7         hc      1    TMS     H1      7   0.042867     1.0080   ; qtot -0.4349
    8         hc      1    TMS     H2      8   0.042867     1.0080   ; qtot -0.3920
    9         hc      1    TMS     H3      9   0.042867     1.0080   ; qtot -0.3491
   10         hc      1    TMS     H4     10   0.042867     1.0080   ; qtot -0.3063
   11         hc      1    TMS     H5     11   0.042867     1.0080   ; qtot -0.2634
   12         hc      1    TMS     H6     12   0.042867     1.0080   ; qtot -0.2205
   13         hc      1    TMS     H7     13   0.042867     1.0080   ; qtot -0.1777
   14         hc      1    TMS     H8     14   0.042867     1.0080   ; qtot -0.1348
   15         hc      1    TMS     H9     15   0.042867     1.0080   ; qtot -0.0919

[ bonds ]
;    ai     aj funct         c0         c1         c2         c3
      1      2     1   0.16200 525000.000000
      2      3     1   0.16200 525000.000000
      3      4     1   0.18915 251793.120000
      3      5     1   0.18915 251793.120000
      3      6     1   0.18915 251793.120000
      4      7     1   0.10969 276646.080000
      4      8     1   0.10969 276646.080000
      4      9     1   0.10969 276646.080000
      5     10     1   0.10969 276646.080000
      5     11     1   0.10969 276646.080000
      5     12     1   0.10969 276646.080000
      6     13     1   0.10969 276646.080000
      6     14     1   0.10969 276646.080000
      6     15     1   0.10969 276646.080000

[ pairs ]
;    ai     aj funct         c0         c1         c2         c3
      1      4     1
      1      5     1
      1      6     1
      2      7     1
      2      8     1
      2      9     1
      2     10     1
      2     11     1
      2     12     1
      2     13     1
      2     14     1
      2     15     1
      4     10     1
      4     11     1
      4     12     1
      4     13     1
      4     14     1
      4     15     1
      5      7     1
      5      8     1
      5      9     1
      5     13     1
      5     14     1
      5     15     1
      6      7     1
      6      8     1
      6      9     1
      6     10     1
      6     11     1
      6     12     1

[ angles ]
;    ai     aj     ak funct         c0         c1         c2         c3
      1      2      3     1   147.00000 529.527040
      2      3      4     1   107.97005 569.024000
      2      3      5     1   107.97005 569.024000
      2      3      6     1   107.97005 569.024000
      4      3      5     1   108.50400 526.012480
      4      3      6     1   108.50400 526.012480
      5      3      6     1   108.50400 526.012480
      3      4      7     1   109.80005 387.773120
      3      4      8     1   109.80005 387.773120
      3      4      9     1   109.80005 387.773120
      3      5     10     1   109.80005 387.773120
      3      5     11     1   109.80005 387.773120
      3      5     12     1   109.80005 387.773120
      3      6     13     1   109.80005 387.773120
      3      6     14     1   109.80005 387.773120
      3      6     15     1   109.80005 387.773120
      7      4      8     1   107.58005 329.699200
      7      4      9     1   107.58005 329.699200
      8      4      9     1   107.58005 329.699200
     10      5     11     1   107.58005 329.699200
     10      5     12     1   107.58005 329.699200
     11      5     12     1   107.58005 329.699200
     13      6     14     1   107.58005 329.699200
     13      6     15     1   107.58005 329.699200
     14      6     15     1   107.58005 329.699200

[ dihedrals ]
;    ai     aj     ak     al funct         c0         c1         c2         c3         c4         c5
      1      2      3      4     1  0.00000  0.66944  3
      1      2      3      5     1  0.00000  0.66944  3
      1      2      3      6     1  0.00000  0.66944  3
      2      3      4      7     1  0.00000  1.04600  1
      2      3      4      8     1  0.00000  1.04600  1
      2      3      4      9     1  0.00000  1.04600  1
      2      3      5     10     1  0.00000  1.04600  1
      2      3      5     11     1  0.00000  1.04600  1
      2      3      5     12     1  0.00000  1.04600  1
      2      3      6     13     1  0.00000  1.04600  1
      2      3      6     14     1  0.00000  1.04600  1
      2      3      6     15     1  0.00000  1.04600  1
      4      3      5     10     1  0.00000  0.66944  3
      4      3      5     11     1  0.00000  0.66944  3
      4      3      5     12     1  0.00000  0.66944  3
      4      3      6     13     1  0.00000  0.66944  3
      4      3      6     14     1  0.00000  0.66944  3
      4      3      6     15     1  0.00000  0.66944  3
      5      3      4      7     1  0.00000  0.66944  3
      5      3      4      8     1  0.00000  0.66944  3
      5      3      4      9     1  0.00000  0.66944  3
      5      3      6     13     1  0.00000  0.66944  3
      5      3      6     14     1  0.00000  0.66944  3
      5      3      6     15     1  0.00000  0.66944  3
      6      3      4      7     1  0.00000  0.66944  3
      6      3      4      8     1  0.00000  0.66944  3
      6      3      4      9     1  0.00000  0.66944  3
      6      3      5     10     1  0.00000  0.66944  3
      6      3      5     11     1  0.00000  0.66944  3
      6      3      5     12     1  0.00000  0.66944  3

